      -----------------------------------------------------------      
     |                   =====================                   |     
     |                           x T B                           |     
     |                   =====================                   |     
     |                         S. Grimme                         |     
     |          Mulliken Center for Theoretical Chemistry        |     
     |                    University of Bonn                     |     
     |                 Version 6.1.4 (SAW190525)                 |     
      -----------------------------------------------------------      

   This program is distributed in the hope that it will be useful,
   but WITHOUT ANY WARRANTY; without even the implied warranty of
   MERCHANTABILITY or FITNESS FOR A PARTICULAR PURPOSE.
   
   FOR NON-COMMERCIAL, ACADEMIA USE ONLY.
   
   Cite this work as:
   S. Grimme, C. Bannwarth, P. Shushkov, J. Comput. Theory Chem., 2017,
   13, 1989-2009. DOI: 10.1021/acs.jctc.7b00118
   C. Bannwarth, S. Ehlert and S. Grimme., J. Comput. Theory Chem., 2019,
   just accepted. DOI: 10.1021/acs.jctc.8b01176
   
   for sTDA-xTB:
   S. Grimme and C. Bannwarth, J. Chem. Phys., 2016, 145, 054103.
   DOI: 10.1063/1.4959605
   
   in the mass-spec context:
   V. Asgeirsson, C. Bauer and S. Grimme, Chem. Sci., 2017, 8, 4879.
   DOI: 10.1039/c7sc00601b
   
   for metadynamics refer to:
   S. Grimme, J. Chem. Theory Comput. Article ASAP, 2019,
   DOI: 10.1021/acs.jctc.9b00143
   
   with help from (in alphabetical order)
   C. Bannwarth, F. Bohle, G. Brandenburg, E. Caldeweyher, M. Checinski,
   S. Dohm, S. Ehlert, S. Ehrlich, F. März, H. Neugebauer, J. Pisarek,
   P. Pracht, P. Shushkov, and S. Spicher.
   
 * started run on 2020/07/03 at 17:35:20.962     

           -------------------------------------------------
          |                Calculation Setup                |
           -------------------------------------------------

          program call               : /opt/xtb/6.1/xtb-190527/bin/xtb 6p.xyz --path --input path.inp --gfn2 --chrg 0
          hostname                   : mnode006
          coordinate file            : 6p.xyz
          omp threads                :                     1
          number of atoms            :                    12
          number of electrons        :                    24
          charge                     :                     0
          spin                       :                   0.0
          first test random number   :      0.56493077334907


molecular fragmentation (1/2 indicates fragments):
112221211212
# atoms in fragment 1/2:     6     6
 fragment masses (1/2) :       28.85       28.85
CMA distance (Bohr)    :   7.223
constraining FC (au)   :  0.0500

########################################################################
# WARNING! Please study the warnings concerning your input carefully
#  - XTBPATH is not set, using XTBHOME instead
########################################################################

           ------------------------------------------------- 
          |                 G F N 2 - x T B                 |
          | Geometry, Frequencies, Noncovalent interactions |
          |            JCTC 2018 parametrisation            |
           ------------------------------------------------- 
             k(s)              :                1.8500
             k(p)              :                2.2300
             k(d)              :                2.2300
             k(f)              :                2.0000
             kEN (H0ij)        :               -2.0000
             D4 a1             :                0.5200
             D4 a2             :                5.0000
             D4 s6             :                1.0000
             D4 s8             :                2.7000
             D4 s9             :                5.0000
             alphaj            :                2.0000

  Z AO/shell   Hii/eV     exponent
  1     Wed Apr 25 08:07:45 CEST 2018   EN: 2.200 GM2: 0.406  GM3: 0.0800  RAES: 1.40
     1s    -10.707211    1.230000
  5     Mon Apr 23 23:47:44 CEST 2018   EN: 2.040 GM2: 0.514  GM3: 0.0946  RAES: 5.00
     2s     -9.224376    1.479444
     2p     -7.419002    1.479805
  7     Wed Apr 25 08:07:45 CEST 2018   EN: 3.040 GM2: 0.461  GM3:-0.0640  RAES: 1.90
     2s    -16.686243    2.339881
     2p    -12.523956    2.014332


            Z     q(EN)     CN     RAES       Cart. coordinates
     1  N   5.0   -0.63    2.99    1.92     3.93794    -0.32772     0.24564
     2  B   3.0   -0.13    2.94    5.00     3.02271     2.03449    -0.45332
     3  N   5.0   -0.63    2.99    1.92    -3.85680     0.35774     0.32758
     4  B   3.0   -0.13    2.94    5.00    -3.15633    -2.10085    -0.27973
     5  H   1.0    0.26    1.00    1.43    -4.60359     0.84952     2.01194
     6  H   1.0    0.12    0.97    1.43     3.42476     3.81309     0.88158
     7  H   1.0    0.12    0.97    1.43    -3.46446    -3.74161     1.24381
     8  H   1.0    0.26    1.00    1.43     3.63187    -1.90446    -0.78315
     9  H   1.0    0.26    1.00    1.43     4.92464    -0.64097     1.84712
    10  H   1.0    0.26    1.00    1.43    -3.61729     1.83206    -0.85910
    11  H   1.0    0.12    0.97    1.43     1.87033     2.21785    -2.38702
    12  H   1.0    0.12    0.97    1.43    -2.28021    -2.51371    -2.32193

           ------------------------------------------------- 
          |        Self-Consistent Charge Iterations        |
           ------------------------------------------------- 

          ...................................................
          :                      SETUP                      :
          :.................................................:
          :  # basis functions                  24          :
          :  # atomic orbitals                  24          :
          :  # shells                           16          :
          :  # electrons                        24          :
          :  max. iterations                   250          :
          :  Hamiltonian                  GFN2-xTB          :
          :  restarted?                      false          :
          :  GBSA solvation                  false          :
          :  PC potential                    false          :
          :  electronic temp.          300.0000000     K    :
          :  accuracy                    1.0000000          :
          :  -> integral cutoff          0.2500000E+02      :
          :  -> integral neglect         0.1000000E-07      :
          :  -> SCF convergence          0.1000000E-05 Eh   :
          :  -> wf. convergence          0.1000000E-03 e    :
          :  Broyden damping             0.4000000          :
          ...................................................

 iter      E             dE          RMSdq      gap      omega  full diag
   1    -12.4006883 -0.124007E+02  0.928E+00    6.15       0.0  T
   2    -12.5629981 -0.162310E+00  0.607E+00    5.64       1.0  T
   3    -12.5716538 -0.865575E-02  0.271E+00    5.85       1.0  T
   4    -12.5817876 -0.101338E-01  0.103E+00    5.77       1.0  T
   5    -12.5868143 -0.502665E-02  0.322E-01    6.00       1.0  T
   6    -12.5872929 -0.478617E-03  0.119E-01    5.93       1.0  T
   7    -12.5874241 -0.131199E-03  0.172E-02    5.96       1.7  T
   8    -12.5874205  0.361923E-05  0.189E-02    5.95       1.5  T
   9    -12.5874258 -0.534394E-05  0.157E-03    5.96      18.4  T
  10    -12.5874258 -0.173633E-07  0.283E-04    5.96     102.0  T
  11    -12.5874258 -0.903274E-09  0.494E-05    5.96     584.8  T

   *** convergence criteria satisfied after 11 iterations ***

         #    Occupation            Energy/Eh            Energy/eV
      -------------------------------------------------------------
         1        2.0000           -0.5937220             -16.1560
       ...           ...                  ...                  ...
         6        2.0000           -0.5038111             -13.7094
         7        2.0000           -0.4392613             -11.9529
         8        2.0000           -0.4375681             -11.9068
         9        2.0000           -0.4132320             -11.2446
        10        2.0000           -0.4109349             -11.1821
        11        2.0000           -0.4000238             -10.8852
        12        2.0000           -0.3988810             -10.8541 (HOMO)
        13                         -0.1800202              -4.8986 (LUMO)
        14                         -0.1781208              -4.8469
        15                          0.0571476               1.5551
        16                          0.0580683               1.5801
        17                          0.1797487               4.8912
       ...                                ...                  ...
        24                          0.4644018              12.6370
      -------------------------------------------------------------
                  HL-Gap            0.2188607 Eh            5.9555 eV
             Fermi-level           -0.2894506 Eh           -7.8764 eV

 SCC (total)                   0 d,  0 h,  0 min,  0.175 sec
 SCC setup                      ...        0 min,  0.000 sec (  0.282%)
 Dispersion                     ...        0 min,  0.000 sec (  0.067%)
 integral evaluation            ...        0 min,  0.002 sec (  1.184%)
 zeroth order Hamiltonian       ...        0 min,  0.064 sec ( 36.235%)
 iterations                     ...        0 min,  0.005 sec (  2.811%)
 molecular gradient             ...        0 min,  0.003 sec (  1.950%)
 printout                       ...        0 min,  0.101 sec ( 57.449%)

         :::::::::::::::::::::::::::::::::::::::::::::::::::::
         ::                     SUMMARY                     ::
         :::::::::::::::::::::::::::::::::::::::::::::::::::::
         :: total energy              -12.429491363432 Eh   ::
         :: gradient norm               0.028110202561 Eh/α ::
         :: HOMO-LUMO gap               5.955503387563 eV   ::
         ::.................................................::
         :: SCC energy                -12.587425825324 Eh   ::
         :: -> isotropic ES             0.058465323037 Eh   ::
         :: -> anisotropic ES           0.012789732736 Eh   ::
         :: -> anisotropic XC           0.005988834647 Eh   ::
         :: -> dispersion              -0.004392287283 Eh   ::
         :: repulsion energy            0.157918133610 Eh   ::
         :: add. restraining            0.000000000000 Eh   ::
         :::::::::::::::::::::::::::::::::::::::::::::::::::::

           -------------------------------------------------
          |                Property Printout                |
           -------------------------------------------------

    * Orbital Energies and Occupations

         #    Occupation            Energy/Eh            Energy/eV
      -------------------------------------------------------------
         1        2.0000           -0.5937220             -16.1560
         2        2.0000           -0.5927427             -16.1294
         3        2.0000           -0.5201461             -14.1539
         4        2.0000           -0.5190329             -14.1236
         5        2.0000           -0.5046514             -13.7323
         6        2.0000           -0.5038111             -13.7094
         7        2.0000           -0.4392613             -11.9529
         8        2.0000           -0.4375681             -11.9068
         9        2.0000           -0.4132320             -11.2446
        10        2.0000           -0.4109349             -11.1821
        11        2.0000           -0.4000238             -10.8852
        12        2.0000           -0.3988810             -10.8541 (HOMO)
        13                         -0.1800202              -4.8986 (LUMO)
        14                         -0.1781208              -4.8469
        15                          0.0571476               1.5551
        16                          0.0580683               1.5801
        17                          0.1797487               4.8912
        18                          0.1855323               5.0486
        19                          0.3042407               8.2788
        20                          0.3095927               8.4244
        21                          0.4336934              11.8014
        22                          0.4386823              11.9372
        23                          0.4567112              12.4277
        24                          0.4644018              12.6370
      -------------------------------------------------------------
                  HL-Gap            0.2188607 Eh            5.9555 eV
             Fermi-level           -0.2894506 Eh           -7.8764 eV

   #   Z        covCN         q      C6AA      α(0)
   1   7 N      2.561    -0.313    28.086     7.871
   2   5 B      2.698     0.234    17.967     7.113
   3   7 N      2.561    -0.313    28.074     7.869
   4   5 B      2.697     0.234    17.968     7.114
   5   1 H      0.860     0.158     1.350     1.820
   6   1 H      0.929    -0.120     6.319     3.931
   7   1 H      0.929    -0.121     6.349     3.940
   8   1 H      0.860     0.162     1.325     1.803
   9   1 H      0.860     0.158     1.348     1.818
  10   1 H      0.860     0.162     1.322     1.801
  11   1 H      0.929    -0.120     6.306     3.927
  12   1 H      0.929    -0.120     6.300     3.925

 Mol. C6AA /au·bohr⁶  :       1134.453383
 Mol. C8AA /au·bohr⁸  :      23703.657152
 Mol. α(0) /au        :         52.932189


Wiberg/Mayer (AO) data.
largest (>0.10) Wiberg bond orders for each atom
          total WBO             WBO to atom ...
     1  N   3.390        B    2 1.462    H    9 0.962    H    8 0.961
     2  B   3.402        N    1 1.462    H    6 0.968    H   11 0.967
     3  N   3.390        B    4 1.462    H    5 0.962    H   10 0.960
     4  B   3.402        N    3 1.462    H   12 0.968    H    7 0.967
     5  H   0.975        N    3 0.962
     6  H   0.986        B    2 0.968
     7  H   0.985        B    4 0.967
     8  H   0.974        N    1 0.961
     9  H   0.975        N    1 0.962
    10  H   0.974        N    3 0.960
    11  H   0.986        B    2 0.967
    12  H   0.986        B    4 0.968

molecular dipole:
                 x           y           z       tot (Debye)
 q only:        0.051       0.026       0.300
   full:        0.071       0.034       0.431       1.114
molecular quadrupole (traceless):
                xx          xy          yy          xz          yz          zz
 q only:        3.349      -5.705      -2.689       0.089       0.110      -0.660
  q+dip:        2.656      -8.096      -3.322       0.321       0.272       0.666
   full:        4.421      -7.754      -4.048       0.140       0.185      -0.372


           -------------------------------------------------
          | TOTAL ENERGY              -12.429491363432 Eh   |
          | GRADIENT NORM               0.028110202561 Eh/α |
          | HOMO-LUMO GAP               5.955503387563 eV   |
           -------------------------------------------------
           ------------------------------------------------- 
          |                     P A T H                     |
          |            RMSD-Push/Pull Path Finder           |
           ------------------------------------------------- 
 reading reference structures from 6r_rel.xyz ...
initial k push/pull              :    0.010   -0.020
Gaussian width (1/Bohr)          :    0.300
# random initial distor incr +/- :    0.005
# optlevel                       :   2
# of runs                        :   3
approx # structures opt on path  : 100
# of 'an'-optimization steps     :   3
 
  k_push/k_pull internally multiplied by Natoms!
  user info on effect of push/pull parameters
  ang. ed-prod G should be small, Govlp large
   width   k_push  k_pull  |Gbias| ang. ed-prod G  Govlp
   1.000   0.010  -0.020    0.000054   301.7    -0.00000
   0.900   0.015  -0.030    0.000210   212.3    -0.00000
   0.800   0.023  -0.045    0.000806   174.8     0.00000
   0.700   0.034  -0.068    0.003046   171.0     0.00000
   0.600   0.051  -0.101    0.011273   170.7     0.00000
   0.500   0.076  -0.152    0.040563   170.7     0.00001
   0.400   0.114  -0.228    0.140120   170.7     0.00007
   0.300   0.171  -0.342    0.453781   170.7     0.00076
   0.200   0.256  -0.513    1.306286   170.7     0.00630
input reactant/product RMSD (Bohr)  :    3.252

 
 optimizing inital path with Vbias ...
actual k push/pull :   0.010  -0.020

          ...................................................
          :                      SETUP                      :
          :.................................................:
          :   optimization level         verytight          :
          :   max. optcycles                   240          :
          :   ANC micro-cycles                  20          :
          :   degrees of freedom                30          :
          :.................................................:
          :   RF solver                   davidson          :
          :   input Hessian                  false          :
          :   write xtbopt.log                true          :
          :   linear?                        false          :
          :   energy convergence         0.1000000E-06 Eh   :
          :   grad. convergence          0.2000000E-03 Eh/α :
          :   maximium RF displ.         1.0000000          :
          :   Hlow (freq-cutoff)         0.1000000E-01      :
          :   Hmax (freq-cutoff)         5.0000000          :
          :   S6 in model hess.         20.0000000          :
          ...................................................

generating ANC from model Hessian ...
Using Lindh-Hessian (1995)
 Shifting diagonal of input Hessian by   9.712763228795199E-003
 Lowest  eigenvalues of input Hessian
   -0.000000   -0.000000   -0.000000    0.000000    0.000000    0.000000
    0.010000    0.010009    0.010033    0.010101    0.010286    0.010416
    0.024979    0.025020    0.031244    0.031546    0.056840    0.057330
 Highest eigenvalues
    0.880972    0.881986    1.526420    1.541320    1.762574    1.763090
 

........................................................................
.............................. CYCLE    1 ..............................
........................................................................
   1    -12.5881433 -0.125881E+02  0.385E-02    5.95       0.0  T
   2    -12.5881437 -0.338260E-06  0.218E-02    5.94       1.3  T
   3    -12.5881434  0.243629E-06  0.741E-03    5.95       3.9  T
   4    -12.5881438 -0.342773E-06  0.124E-03    5.95      23.2  T
   5    -12.5881438 -0.572898E-08  0.468E-04    5.95      61.7  T
   6    -12.5881438 -0.344791E-10  0.105E-04    5.95     274.9  T
   7    -12.5881438 -0.872529E-10  0.323E-05    5.95     894.5  T
   8    -12.5881438 -0.612843E-12  0.490E-06    5.95    5895.2  T
     SCC iter.                  ...        0 min,  0.003 sec
     gradient                   ...        0 min,  0.004 sec
 * total energy  :   -12.3195061 Eh     change       -0.1231951E+02 Eh
   gradient norm :     0.0301513 Eh/α   predicted     0.0000000E+00 (-100.00%)
   displ. norm   :     0.2742257 α      lambda       -0.3447284E-02
   maximum displ.:     0.1618832 α      in ANC's #2, #6, #1, ...

........................................................................
.............................. CYCLE    2 ..............................
........................................................................
   1    -12.6010562 -0.126011E+02  0.189E-01    6.01       0.0  T
   2    -12.6010648 -0.852312E-05  0.106E-01    6.01       1.0  T
   3    -12.6010589  0.581507E-05  0.350E-02    6.01       1.0  T
   4    -12.6010679 -0.894985E-05  0.468E-03    6.01       6.2  T
   5    -12.6010679 -0.206427E-07  0.107E-03    6.01      26.9  T
   6    -12.6010679 -0.918002E-09  0.460E-04    6.01      62.7  T
   7    -12.6010679 -0.138659E-08  0.149E-04    6.01     193.3  T
   8    -12.6010679 -0.149250E-10  0.192E-05    6.01    1500.9  T
     SCC iter.                  ...        0 min,  0.003 sec
     gradient                   ...        0 min,  0.003 sec
 * total energy  :   -12.3221489 Eh     change       -0.2642810E-02 Eh
   gradient norm :     0.0106115 Eh/α   predicted    -0.1853257E-02 ( -29.88%)
   displ. norm   :     0.6549923 α      lambda       -0.3993813E-02
   maximum displ.:     0.4100096 α      in ANC's #2, #6, #1, ...

........................................................................
.............................. CYCLE    3 ..............................
........................................................................
   1    -12.6117632 -0.126118E+02  0.404E-01    6.02       0.0  T
   2    -12.6117765 -0.132768E-04  0.232E-01    6.03       1.0  T
   3    -12.6117744  0.207444E-05  0.280E-02    6.02       1.0  T
   4    -12.6117820 -0.758403E-05  0.731E-03    6.03       4.0  T
   5    -12.6117820 -0.237706E-07  0.146E-03    6.03      19.8  T
   6    -12.6117820 -0.454614E-08  0.493E-04    6.03      58.6  T
   7    -12.6117820 -0.148383E-08  0.169E-04    6.03     171.2  T
   8    -12.6117820 -0.222826E-10  0.370E-05    6.03     779.9  T
   9    -12.6117820 -0.570211E-12  0.136E-05    6.03    2119.0  T
     SCC iter.                  ...        0 min,  0.003 sec
     gradient                   ...        0 min,  0.003 sec
 * total energy  :   -12.3261915 Eh     change       -0.4042632E-02 Eh
   gradient norm :     0.0186822 Eh/α   predicted    -0.2853583E-02 ( -29.41%)
   displ. norm   :     0.6842329 α      lambda       -0.5911301E-02
   maximum displ.:     0.4520254 α      in ANC's #2, #6, #1, ...

........................................................................
.............................. CYCLE    4 ..............................
........................................................................
   1    -12.6066820 -0.126067E+02  0.488E-01    5.94       0.0  T
   2    -12.6067068 -0.248593E-04  0.281E-01    5.95       1.0  T
   3    -12.6067137 -0.682575E-05  0.223E-02    5.95       1.3  T
   4    -12.6067164 -0.270865E-05  0.109E-02    5.95       2.7  T
   5    -12.6067167 -0.280012E-06  0.279E-03    5.95      10.3  T
   6    -12.6067167 -0.180110E-08  0.601E-04    5.95      48.0  T
   7    -12.6067167 -0.421210E-10  0.259E-04    5.95     111.2  T
   8    -12.6067167 -0.434705E-09  0.498E-05    5.95     579.3  T
   9    -12.6067167 -0.964562E-12  0.218E-05    5.95    1323.4  T
     SCC iter.                  ...        0 min,  0.003 sec
     gradient                   ...        0 min,  0.009 sec
 * total energy  :   -12.3327438 Eh     change       -0.6552313E-02 Eh
   gradient norm :     0.0278609 Eh/α   predicted    -0.4339430E-02 ( -33.77%)
   displ. norm   :     0.7166745 α      lambda       -0.8979093E-02
   maximum displ.:     0.4197278 α      in ANC's #2, #6, #1, ...

........................................................................
.............................. CYCLE    5 ..............................
........................................................................
   1    -12.6023491 -0.126023E+02  0.495E-01    5.83       0.0  T
   2    -12.6023849 -0.358185E-04  0.284E-01    5.83       1.0  T
   3    -12.6023806  0.431346E-05  0.444E-02    5.84       1.0  T
   4    -12.6023994 -0.188026E-04  0.133E-02    5.83       2.2  T
   5    -12.6023995 -0.109385E-06  0.198E-03    5.83      14.6  T
   6    -12.6023995 -0.157206E-08  0.817E-04    5.83      35.3  T
   7    -12.6023995 -0.232377E-08  0.328E-04    5.83      88.1  T
   8    -12.6023995 -0.221338E-09  0.632E-05    5.83     456.7  T
   9    -12.6023995 -0.295586E-11  0.220E-05    5.83    1314.9  T
     SCC iter.                  ...        0 min,  0.010 sec
     gradient                   ...        0 min,  0.003 sec
 * total energy  :   -12.3413679 Eh     change       -0.8624096E-02 Eh
   gradient norm :     0.0328294 Eh/α   predicted    -0.6795460E-02 ( -21.20%)
   displ. norm   :     0.8842815 α      lambda       -0.1234096E-01
   maximum displ.:     0.4915375 α      in ANC's #6, #2, #1, ...

........................................................................
.............................. CYCLE    6 ..............................
........................................................................
   1    -12.5853576 -0.125854E+02  0.586E-01    5.55       0.0  T
   2    -12.5854643 -0.106660E-03  0.335E-01    5.52       1.0  T
   3    -12.5854097  0.545930E-04  0.100E-01    5.55       1.0  T
   4    -12.5855065 -0.967997E-04  0.146E-02    5.53       2.0  T
   5    -12.5855067 -0.200010E-06  0.346E-03    5.53       8.3  T
   6    -12.5855067 -0.284328E-07  0.145E-03    5.53      19.9  T
   7    -12.5855067 -0.999015E-08  0.481E-04    5.53      60.0  T
   8    -12.5855067 -0.198064E-09  0.721E-05    5.53     400.6  T
   9    -12.5855067 -0.138201E-11  0.286E-05    5.53    1008.9  T
     SCC iter.                  ...        0 min,  0.003 sec
     gradient                   ...        0 min,  0.011 sec
 * total energy  :   -12.3518755 Eh     change       -0.1050759E-01 Eh
   gradient norm :     0.0432798 Eh/α   predicted    -0.1099546E-01 (   4.64%)
   displ. norm   :     0.7573229 α      lambda       -0.1070547E-01
   maximum displ.:     0.3813156 α      in ANC's #6, #1, #2, ...

........................................................................
.............................. CYCLE    7 ..............................
........................................................................
   1    -12.5724474 -0.125724E+02  0.461E-01    5.25       0.0  T
   2    -12.5725955 -0.148150E-03  0.262E-01    5.21       1.0  T
   3    -12.5725686  0.268693E-04  0.118E-01    5.25       1.0  T
   4    -12.5726463 -0.776356E-04  0.176E-02    5.23       1.6  T
   5    -12.5726470 -0.748830E-06  0.562E-03    5.23       5.1  T
   6    -12.5726470 -0.879188E-08  0.163E-03    5.23      17.7  T
   7    -12.5726470 -0.196181E-07  0.612E-04    5.23      47.2  T
   8    -12.5726470 -0.410120E-09  0.838E-05    5.23     344.6  T
   9    -12.5726470 -0.114966E-10  0.303E-05    5.23     953.0  T
     SCC iter.                  ...        0 min,  0.008 sec
     gradient                   ...        0 min,  0.004 sec
 * total energy  :   -12.3605511 Eh     change       -0.8675574E-02 Eh
   gradient norm :     0.0379568 Eh/α   predicted    -0.8422744E-02 (  -2.91%)
   displ. norm   :     0.6205733 α      lambda       -0.1065222E-01
   maximum displ.:     0.3378570 α      in ANC's #1, #3, #6, ...

........................................................................
.............................. CYCLE    8 ..............................
........................................................................
   1    -12.5803186 -0.125803E+02  0.418E-01    5.16       0.0  T
   2    -12.5804366 -0.118047E-03  0.240E-01    5.13       1.0  T
   3    -12.5804118  0.247927E-04  0.107E-01    5.16       1.0  T
   4    -12.5804729 -0.610649E-04  0.239E-02    5.14       1.2  T
   5    -12.5804742 -0.124854E-05  0.734E-03    5.14       3.9  T
   6    -12.5804742 -0.575605E-07  0.268E-03    5.15      10.8  T
   7    -12.5804743 -0.557372E-07  0.603E-04    5.14      47.9  T
   8    -12.5804743 -0.172292E-09  0.781E-05    5.14     369.5  T
   9    -12.5804743 -0.434497E-11  0.309E-05    5.14     935.0  T
     SCC iter.                  ...        0 min,  0.003 sec
     gradient                   ...        0 min,  0.004 sec
 * total energy  :   -12.3650608 Eh     change       -0.4509675E-02 Eh
   gradient norm :     0.0479833 Eh/α   predicted    -0.7377245E-02 (  63.59%)
   displ. norm   :     0.6014357 α      lambda       -0.9868070E-02
   maximum displ.:     0.3484203 α      in ANC's #1, #2, #3, ...

........................................................................
.............................. CYCLE    9 ..............................
........................................................................
   1    -12.5649724 -0.125650E+02  0.515E-01    5.09       0.0  T
   2    -12.5651239 -0.151516E-03  0.295E-01    5.12       1.0  T
   3    -12.5650771  0.467733E-04  0.121E-01    5.11       1.0  T
   4    -12.5651754 -0.983045E-04  0.175E-02    5.12       1.6  T
   5    -12.5651761 -0.669503E-06  0.721E-03    5.12       4.0  T
   6    -12.5651761 -0.286015E-07  0.993E-04    5.12      29.1  T
   7    -12.5651761 -0.620162E-09  0.227E-04    5.12     126.9  T
   8    -12.5651761 -0.340261E-10  0.590E-05    5.12     489.0  T
     SCC iter.                  ...        0 min,  0.003 sec
     gradient                   ...        0 min,  0.004 sec
 * total energy  :   -12.3685578 Eh     change       -0.3497009E-02 Eh
   gradient norm :     0.0417162 Eh/α   predicted    -0.6718793E-02 (  92.13%)
   displ. norm   :     0.3733173 α      lambda       -0.7951234E-02
   maximum displ.:     0.2012854 α      in ANC's #2, #3, #5, ...

........................................................................
.............................. CYCLE   10 ..............................
........................................................................
   1    -12.5800794 -0.125801E+02  0.467E-01    5.01       0.0  T
   2    -12.5802000 -0.120522E-03  0.264E-01    4.98       1.0  T
   3    -12.5801827  0.172980E-04  0.850E-02    4.99       1.0  T
   4    -12.5802289 -0.462532E-04  0.247E-02    4.98       1.2  T
   5    -12.5802298 -0.866735E-06  0.973E-03    4.98       3.0  T
   6    -12.5802299 -0.864786E-07  0.120E-03    4.98      24.0  T
   7    -12.5802299 -0.186027E-08  0.583E-04    4.98      49.5  T
   8    -12.5802299 -0.153065E-08  0.180E-04    4.98     160.0  T
   9    -12.5802299 -0.348326E-10  0.381E-05    4.98     758.5  T
     SCC iter.                  ...        0 min,  0.003 sec
     gradient                   ...        0 min,  0.004 sec
 * total energy  :   -12.3696664 Eh     change       -0.1108601E-02 Eh
   gradient norm :     0.0671465 Eh/α   predicted    -0.4529682E-02 ( 308.59%)
   displ. norm   :     0.3763468 α      lambda       -0.8884592E-02
   maximum displ.:     0.2078823 α      in ANC's #3, #4, #6, ...

........................................................................
.............................. CYCLE   11 ..............................
........................................................................
   1    -12.5832364 -0.125832E+02  0.519E-01    5.11       0.0  T
   2    -12.5833024 -0.660683E-04  0.291E-01    5.12       1.0  T
   3    -12.5832932  0.922548E-05  0.632E-02    5.11       1.0  T
   4    -12.5833248 -0.315849E-04  0.198E-02    5.12       1.5  T
   5    -12.5833251 -0.294540E-06  0.593E-03    5.12       4.9  T
   6    -12.5833251 -0.471945E-07  0.102E-03    5.12      28.3  T
   7    -12.5833251 -0.384059E-08  0.507E-04    5.12      56.9  T
   8    -12.5833251 -0.827800E-09  0.952E-05    5.12     303.3  T
   9    -12.5833251 -0.141949E-10  0.329E-05    5.12     877.7  T
     SCC iter.                  ...        0 min,  0.003 sec
     gradient                   ...        0 min,  0.004 sec
 * total energy  :   -12.3743501 Eh     change       -0.4683732E-02 Eh
   gradient norm :     0.0325919 Eh/α   predicted    -0.5071488E-02 (   8.28%)
   displ. norm   :     0.5820242 α      lambda       -0.7288515E-02
   maximum displ.:     0.3573926 α      in ANC's #3, #6, #4, ...

........................................................................
.............................. CYCLE   12 ..............................
........................................................................
   1    -12.5625267 -0.125625E+02  0.640E-01    5.20       0.0  T
   2    -12.5627195 -0.192781E-03  0.358E-01    5.23       1.0  T
   3    -12.5626950  0.245131E-04  0.113E-01    5.20       1.0  T
   4    -12.5627737 -0.786806E-04  0.322E-02    5.22       1.0  T
   5    -12.5627754 -0.178779E-05  0.103E-02    5.22       2.8  T
   6    -12.5627756 -0.174745E-06  0.179E-03    5.22      16.2  T
   7    -12.5627756 -0.172776E-08  0.440E-04    5.22      65.7  T
   8    -12.5627756 -0.666548E-09  0.186E-04    5.22     155.0  T
   9    -12.5627756 -0.236396E-09  0.615E-05    5.22     469.7  T
     SCC iter.                  ...        0 min,  0.003 sec
     gradient                   ...        0 min,  0.004 sec
 * total energy  :   -12.3738005 Eh     change        0.5496067E-03 Eh
   gradient norm :     0.0669143 Eh/α   predicted    -0.4878749E-02 (-987.68%)
   displ. norm   :     0.3203533 α      lambda       -0.1035520E-01
   maximum displ.:     0.1806292 α      in ANC's #3, #10, #8, ...

........................................................................
.............................. CYCLE   13 ..............................
........................................................................
   1    -12.5728208 -0.125728E+02  0.393E-01    5.19       0.0  T
   2    -12.5728943 -0.735526E-04  0.228E-01    5.17       1.0  T
   3    -12.5728756  0.187632E-04  0.723E-02    5.19       1.0  T
   4    -12.5729189 -0.433441E-04  0.234E-02    5.18       1.2  T
   5    -12.5729197 -0.796670E-06  0.445E-03    5.18       6.5  T
   6    -12.5729197 -0.197705E-07  0.170E-03    5.18      17.0  T
   7    -12.5729197 -0.581064E-08  0.841E-04    5.18      34.3  T
   8    -12.5729197 -0.250125E-08  0.102E-04    5.18     282.4  T
   9    -12.5729197 -0.193303E-10  0.427E-05    5.18     675.9  T
     SCC iter.                  ...        0 min,  0.003 sec
     gradient                   ...        0 min,  0.004 sec
 * total energy  :   -12.3794997 Eh     change       -0.5699181E-02 Eh
   gradient norm :     0.0373885 Eh/α   predicted    -0.5708952E-02 (   0.17%)
   displ. norm   :     0.4057185 α      lambda       -0.5862166E-02
   maximum displ.:     0.2647743 α      in ANC's #3, #9, #1, ...

........................................................................
.............................. CYCLE   14 ..............................
........................................................................
   1    -12.5828794 -0.125829E+02  0.399E-01    5.25       0.0  T
   2    -12.5829855 -0.106146E-03  0.231E-01    5.26       1.0  T
   3    -12.5829700  0.155533E-04  0.861E-02    5.25       1.0  T
   4    -12.5830087 -0.387403E-04  0.236E-02    5.26       1.2  T
   5    -12.5830106 -0.183720E-05  0.778E-03    5.26       3.7  T
   6    -12.5830106 -0.421202E-07  0.129E-03    5.26      22.4  T
   7    -12.5830106 -0.973430E-08  0.627E-04    5.26      46.0  T
   8    -12.5830106 -0.699631E-09  0.106E-04    5.26     271.9  T
   9    -12.5830106 -0.297202E-10  0.282E-05    5.26    1025.1  T
     SCC iter.                  ...        0 min,  0.003 sec
     gradient                   ...        0 min,  0.004 sec
 * total energy  :   -12.3820054 Eh     change       -0.2505761E-02 Eh
   gradient norm :     0.0346404 Eh/α   predicted    -0.3413563E-02 (  36.23%)
   displ. norm   :     0.5123365 α      lambda       -0.5166383E-02
   maximum displ.:     0.3718089 α      in ANC's #3, #6, #7, ...

........................................................................
.............................. CYCLE   15 ..............................
........................................................................
   1    -12.5795597 -0.125796E+02  0.485E-01    5.26       0.0  T
   2    -12.5796100 -0.503508E-04  0.274E-01    5.26       1.0  T
   3    -12.5796008  0.927224E-05  0.572E-02    5.27       1.0  T
   4    -12.5796249 -0.241379E-04  0.146E-02    5.26       2.0  T
   5    -12.5796252 -0.328137E-06  0.644E-03    5.26       4.5  T
   6    -12.5796253 -0.325430E-07  0.608E-04    5.26      47.5  T
   7    -12.5796253 -0.420433E-09  0.318E-04    5.26      90.8  T
   8    -12.5796253 -0.620851E-09  0.670E-05    5.26     430.7  T
   9    -12.5796253 -0.323830E-11  0.182E-05    5.26    1590.2  T
     SCC iter.                  ...        0 min,  0.003 sec
     gradient                   ...        0 min,  0.004 sec
 * total energy  :   -12.3857009 Eh     change       -0.3695484E-02 Eh
   gradient norm :     0.0374463 Eh/α   predicted    -0.3261257E-02 ( -11.75%)
   displ. norm   :     0.6203304 α      lambda       -0.8065065E-02
   maximum displ.:     0.3780226 α      in ANC's #3, #6, #21, ...

........................................................................
.............................. CYCLE   16 ..............................
........................................................................
   1    -12.5873112 -0.125873E+02  0.511E-01    5.26       0.0  T
   2    -12.5874005 -0.893148E-04  0.298E-01    5.25       1.0  T
   3    -12.5874143 -0.137809E-04  0.583E-02    5.25       1.0  T
   4    -12.5874202 -0.586954E-05  0.265E-02    5.24       1.1  T
   5    -12.5874227 -0.251853E-05  0.719E-03    5.25       4.0  T
   6    -12.5874228 -0.176678E-06  0.126E-03    5.25      22.9  T
   7    -12.5874228 -0.743039E-09  0.147E-04    5.25     196.2  T
   8    -12.5874228 -0.462492E-10  0.730E-05    5.25     395.6  T
     SCC iter.                  ...        0 min,  0.003 sec
     gradient                   ...        0 min,  0.004 sec
 * total energy  :   -12.3878525 Eh     change       -0.2151621E-02 Eh
   gradient norm :     0.0527318 Eh/α   predicted    -0.5584304E-02 ( 159.54%)
   displ. norm   :     0.5332138 α      lambda       -0.6991967E-02
   maximum displ.:     0.3989925 α      in ANC's #3, #5, #4, ...

........................................................................
.............................. CYCLE   17 ..............................
........................................................................
   1    -12.5673069 -0.125673E+02  0.451E-01    5.15       0.0  T
   2    -12.5673424 -0.355052E-04  0.261E-01    5.15       1.0  T
   3    -12.5673472 -0.477744E-05  0.330E-02    5.16       1.0  T
   4    -12.5673516 -0.439766E-05  0.177E-02    5.16       1.6  T
   5    -12.5673528 -0.124971E-05  0.513E-03    5.16       5.6  T
   6    -12.5673528 -0.753008E-08  0.112E-03    5.16      25.8  T
   7    -12.5673528 -0.193568E-09  0.275E-04    5.16     105.1  T
   8    -12.5673528 -0.485198E-09  0.840E-05    5.16     343.7  T
     SCC iter.                  ...        0 min,  0.003 sec
     gradient                   ...        0 min,  0.004 sec
 * total energy  :   -12.3916559 Eh     change       -0.3803401E-02 Eh
   gradient norm :     0.0369173 Eh/α   predicted    -0.4489941E-02 (  18.05%)
   displ. norm   :     0.4192447 α      lambda       -0.9326512E-02
   maximum displ.:     0.1655126 α      in ANC's #1, #8, #6, ...

........................................................................
.............................. CYCLE   18 ..............................
........................................................................
   1    -12.6042620 -0.126043E+02  0.412E-01    5.42       0.0  T
   2    -12.6043678 -0.105785E-03  0.226E-01    5.44       1.0  T
   3    -12.6043629  0.486247E-05  0.879E-02    5.43       1.0  T
   4    -12.6043983 -0.354099E-04  0.300E-02    5.44       1.0  T
   5    -12.6043994 -0.106529E-05  0.527E-03    5.44       5.5  T
   6    -12.6043994 -0.365074E-07  0.145E-03    5.44      19.9  T
   7    -12.6043994 -0.507915E-09  0.200E-04    5.44     144.6  T
   8    -12.6043994 -0.888427E-10  0.694E-05    5.44     416.0  T
     SCC iter.                  ...        0 min,  0.003 sec
     gradient                   ...        0 min,  0.004 sec
 * total energy  :   -12.3880368 Eh     change        0.3619189E-02 Eh
   gradient norm :     0.0955971 Eh/α   predicted    -0.5482888E-02 (-251.49%)
   displ. norm   :     0.3198137 α      lambda       -0.1527829E-01
   maximum displ.:     0.2238832 α      in ANC's #3, #8, #4, ...

........................................................................
.............................. CYCLE   19 ..............................
........................................................................
   1    -12.5869567 -0.125870E+02  0.300E-01    5.34       0.0  T
   2    -12.5870125 -0.557564E-04  0.167E-01    5.33       1.0  T
   3    -12.5870103  0.217029E-05  0.629E-02    5.33       1.0  T
   4    -12.5870283 -0.179989E-04  0.235E-02    5.32       1.2  T
   5    -12.5870292 -0.857577E-06  0.351E-03    5.33       8.2  T
   6    -12.5870292 -0.131373E-07  0.106E-03    5.33      27.2  T
   7    -12.5870292 -0.110383E-09  0.241E-04    5.33     119.6  T
   8    -12.5870292 -0.341613E-09  0.779E-05    5.33     370.5  T
     SCC iter.                  ...        0 min,  0.003 sec
     gradient                   ...        0 min,  0.004 sec
 * total energy  :   -12.3961913 Eh     change       -0.8154519E-02 Eh
   gradient norm :     0.0193689 Eh/α   predicted    -0.8420477E-02 (   3.26%)
   displ. norm   :     0.6558362 α      lambda       -0.4275131E-02
   maximum displ.:     0.4981336 α      in ANC's #3, #21, #6, ...

........................................................................
.............................. CYCLE   20 ..............................
........................................................................
   1    -12.5756142 -0.125756E+02  0.542E-01    5.26       0.0  T
   2    -12.5756438 -0.296192E-04  0.315E-01    5.25       1.0  T
   3    -12.5756325  0.113237E-04  0.471E-02    5.26       1.0  T
   4    -12.5756563 -0.238422E-04  0.148E-02    5.25       1.9  T
   5    -12.5756565 -0.122542E-06  0.197E-03    5.26      14.7  T
   6    -12.5756565 -0.205981E-08  0.754E-04    5.26      38.3  T
   7    -12.5756565 -0.442034E-09  0.286E-04    5.26     100.8  T
   8    -12.5756565 -0.593163E-09  0.548E-05    5.26     526.3  T
   9    -12.5756565 -0.209077E-11  0.227E-05    5.26    1272.7  T
     SCC iter.                  ...        0 min,  0.003 sec
     gradient                   ...        0 min,  0.004 sec
 * total energy  :   -12.3993615 Eh     change       -0.3170185E-02 Eh
   gradient norm :     0.0305150 Eh/α   predicted    -0.3056948E-02 (  -3.57%)
   displ. norm   :     0.6047041 α      lambda       -0.4426164E-02
   maximum displ.:     0.3943239 α      in ANC's #3, #5, #21, ...
 * RMSD in coord.:     2.0156356 α      energy gain  -0.1239936E+02 Eh

generating ANC from model Hessian ...
Using Lindh-Hessian (1995)
 Shifting diagonal of input Hessian by   1.434328532823009E-002
 Lowest  eigenvalues of input Hessian
    0.010000    0.014302   -0.000000   -0.000000    0.000000    0.000000
    0.000000    0.000000    0.014680    0.014975    0.015685    0.015823
    0.028986    0.029673    0.033352    0.036208    0.060969    0.062021
 Highest eigenvalues
    0.887223    0.919772    1.453916    1.512471    1.721648    1.746980
 

........................................................................
.............................. CYCLE   21 ..............................
........................................................................
   1    -12.5749070 -0.125749E+02  0.467E-01    5.31       0.0  T
   2    -12.5749202 -0.132004E-04  0.273E-01    5.31       1.0  T
   3    -12.5749235 -0.330593E-05  0.209E-02    5.31       1.4  T
   4    -12.5749258 -0.233721E-05  0.109E-02    5.31       2.6  T
   5    -12.5749260 -0.166952E-06  0.129E-03    5.31      22.4  T
   6    -12.5749260 -0.170589E-08  0.498E-04    5.31      58.0  T
   7    -12.5749260 -0.555179E-09  0.229E-04    5.31     126.3  T
   8    -12.5749260 -0.261425E-09  0.426E-05    5.31     678.4  T
   9    -12.5749260 -0.653699E-12  0.165E-05    5.31    1752.7  T
     SCC iter.                  ...        0 min,  0.003 sec
     gradient                   ...        0 min,  0.004 sec
 * total energy  :   -12.4029620 Eh     change       -0.3600505E-02 Eh
   gradient norm :     0.0309706 Eh/α   predicted     0.0000000E+00 (-100.00%)
   displ. norm   :     0.3442347 α      lambda       -0.4632819E-02
   maximum displ.:     0.2842624 α      in ANC's #3, #2, #6, ...

........................................................................
.............................. CYCLE   22 ..............................
........................................................................
   1    -12.5891095 -0.125891E+02  0.354E-01    5.43       0.0  T
   2    -12.5891292 -0.196948E-04  0.204E-01    5.44       1.0  T
   3    -12.5891168  0.123594E-04  0.432E-02    5.43       1.0  T
   4    -12.5891365 -0.197163E-04  0.106E-02    5.43       2.7  T
   5    -12.5891366 -0.857992E-07  0.232E-03    5.43      12.4  T
   6    -12.5891366 -0.388266E-08  0.651E-04    5.43      44.4  T
   7    -12.5891366 -0.759314E-09  0.284E-04    5.43     101.8  T
   8    -12.5891366 -0.491623E-09  0.396E-05    5.43     728.4  T
     SCC iter.                  ...        0 min,  0.003 sec
     gradient                   ...        0 min,  0.003 sec
 * total energy  :   -12.4066153 Eh     change       -0.3653312E-02 Eh
   gradient norm :     0.0127934 Eh/α   predicted    -0.2590895E-02 ( -29.08%)
   displ. norm   :     0.6478802 α      lambda       -0.4993222E-02
   maximum displ.:     0.5575565 α      in ANC's #3, #2, #6, ...

........................................................................
.............................. CYCLE   23 ..............................
........................................................................
   1    -12.5963752 -0.125964E+02  0.581E-01    5.51       0.0  T
   2    -12.5964075 -0.323133E-04  0.338E-01    5.51       1.0  T
   3    -12.5964079 -0.402843E-06  0.368E-02    5.51       1.0  T
   4    -12.5964187 -0.107786E-04  0.149E-02    5.51       1.9  T
   5    -12.5964189 -0.291294E-06  0.471E-03    5.51       6.1  T
   6    -12.5964190 -0.369046E-07  0.898E-04    5.51      32.1  T
   7    -12.5964190 -0.443501E-08  0.419E-04    5.51      68.9  T
   8    -12.5964190 -0.414735E-09  0.677E-05    5.51     426.4  T
   9    -12.5964190 -0.363976E-11  0.248E-05    5.51    1165.8  T
     SCC iter.                  ...        0 min,  0.003 sec
     gradient                   ...        0 min,  0.003 sec
 * total energy  :   -12.4105635 Eh     change       -0.3948249E-02 Eh
   gradient norm :     0.0144950 Eh/α   predicted    -0.3544548E-02 ( -10.22%)
   displ. norm   :     0.7432508 α      lambda       -0.4913658E-02
   maximum displ.:     0.6409526 α      in ANC's #3, #2, #5, ...

........................................................................
.............................. CYCLE   24 ..............................
........................................................................
   1    -12.5925409 -0.125925E+02  0.592E-01    5.62       0.0  T
   2    -12.5925585 -0.176292E-04  0.351E-01    5.62       1.0  T
   3    -12.5925539  0.458185E-05  0.348E-02    5.62       1.0  T
   4    -12.5925657 -0.118055E-04  0.126E-02    5.62       2.3  T
   5    -12.5925658 -0.932333E-07  0.198E-03    5.62      14.6  T
   6    -12.5925658 -0.819471E-08  0.665E-04    5.62      43.4  T
   7    -12.5925658 -0.255981E-08  0.268E-04    5.62     107.6  T
   8    -12.5925658 -0.908980E-10  0.506E-05    5.62     570.3  T
   9    -12.5925658 -0.368416E-11  0.180E-05    5.62    1600.4  T
     SCC iter.                  ...        0 min,  0.003 sec
     gradient                   ...        0 min,  0.003 sec
 * total energy  :   -12.4146781 Eh     change       -0.4114567E-02 Eh
   gradient norm :     0.0190318 Eh/α   predicted    -0.3814009E-02 (  -7.30%)
   displ. norm   :     0.7255643 α      lambda       -0.4062759E-02
   maximum displ.:     0.6306428 α      in ANC's #3, #2, #5, ...

........................................................................
.............................. CYCLE   25 ..............................
........................................................................
   1    -12.5853026 -0.125853E+02  0.532E-01    5.66       0.0  T
   2    -12.5853245 -0.219051E-04  0.309E-01    5.65       1.0  T
   3    -12.5853108  0.136973E-04  0.474E-02    5.66       1.0  T
   4    -12.5853324 -0.215786E-04  0.113E-02    5.65       2.5  T
   5    -12.5853325 -0.142526E-06  0.415E-03    5.65       7.0  T
   6    -12.5853325 -0.900368E-08  0.492E-04    5.65      58.7  T
   7    -12.5853325 -0.226965E-10  0.151E-04    5.65     191.3  T
   8    -12.5853325 -0.134410E-09  0.446E-05    5.65     647.8  T
   9    -12.5853325 -0.973088E-11  0.161E-05    5.65    1789.0  T
     SCC iter.                  ...        0 min,  0.003 sec
     gradient                   ...        0 min,  0.003 sec
 * total energy  :   -12.4177406 Eh     change       -0.3062558E-02 Eh
   gradient norm :     0.0205100 Eh/α   predicted    -0.3100780E-02 (   1.25%)
   displ. norm   :     0.5702499 α      lambda       -0.2774675E-02
   maximum displ.:     0.4631187 α      in ANC's #3, #2, #5, ...

........................................................................
.............................. CYCLE   26 ..............................
........................................................................
   1    -12.5856001 -0.125856E+02  0.426E-01    5.72       0.0  T
   2    -12.5856164 -0.162542E-04  0.246E-01    5.72       1.0  T
   3    -12.5856158  0.581431E-06  0.276E-02    5.72       1.0  T
   4    -12.5856223 -0.650828E-05  0.991E-03    5.72       2.9  T
   5    -12.5856225 -0.199352E-06  0.358E-03    5.72       8.1  T
   6    -12.5856225 -0.961382E-08  0.421E-04    5.72      68.5  T
   7    -12.5856225 -0.887823E-11  0.196E-04    5.72     147.3  T
   8    -12.5856225 -0.190852E-09  0.392E-05    5.72     736.3  T
     SCC iter.                  ...        0 min,  0.003 sec
     gradient                   ...        0 min,  0.003 sec
 * total energy  :   -12.4198739 Eh     change       -0.2133268E-02 Eh
   gradient norm :     0.0222551 Eh/α   predicted    -0.1838489E-02 ( -13.82%)
   displ. norm   :     0.5545840 α      lambda       -0.3110762E-02
   maximum displ.:     0.3987004 α      in ANC's #3, #2, #5, ...

........................................................................
.............................. CYCLE   27 ..............................
........................................................................
   1    -12.5951044 -0.125951E+02  0.368E-01    5.79       0.0  T
   2    -12.5951212 -0.167928E-04  0.219E-01    5.79       1.0  T
   3    -12.5951145  0.669878E-05  0.333E-02    5.79       1.0  T
   4    -12.5951270 -0.125049E-04  0.109E-02    5.79       2.7  T
   5    -12.5951272 -0.233839E-06  0.247E-03    5.79      11.7  T
   6    -12.5951272 -0.251402E-08  0.757E-04    5.79      38.2  T
   7    -12.5951272 -0.119244E-08  0.321E-04    5.79      89.8  T
   8    -12.5951272 -0.524421E-09  0.436E-05    5.79     662.8  T
   9    -12.5951272 -0.582645E-12  0.189E-05    5.79    1524.8  T
     SCC iter.                  ...        0 min,  0.003 sec
     gradient                   ...        0 min,  0.003 sec
 * total energy  :   -12.4218264 Eh     change       -0.1952522E-02 Eh
   gradient norm :     0.0193321 Eh/α   predicted    -0.2033748E-02 (   4.16%)
   displ. norm   :     0.5923548 α      lambda       -0.3061355E-02
   maximum displ.:     0.4453262 α      in ANC's #3, #2, #5, ...

........................................................................
.............................. CYCLE   28 ..............................
........................................................................
   1    -12.5948264 -0.125948E+02  0.528E-01    5.84       0.0  T
   2    -12.5948571 -0.306953E-04  0.304E-01    5.85       1.0  T
   3    -12.5948668 -0.971640E-05  0.256E-02    5.85       1.1  T
   4    -12.5948696 -0.283033E-05  0.130E-02    5.85       2.2  T
   5    -12.5948699 -0.231276E-06  0.275E-03    5.85      10.5  T
   6    -12.5948699 -0.172394E-07  0.766E-04    5.85      37.7  T
   7    -12.5948699 -0.257723E-09  0.210E-04    5.85     137.2  T
   8    -12.5948699 -0.299629E-09  0.768E-05    5.85     376.1  T
   9    -12.5948699 -0.718181E-11  0.272E-05    5.85    1059.7  T
     SCC iter.                  ...        0 min,  0.003 sec
     gradient                   ...        0 min,  0.003 sec
 * total energy  :   -12.4236615 Eh     change       -0.1835018E-02 Eh
   gradient norm :     0.0222603 Eh/α   predicted    -0.2067767E-02 (  12.68%)
   displ. norm   :     0.5355096 α      lambda       -0.2172500E-02
   maximum displ.:     0.4188160 α      in ANC's #3, #2, #4, ...

........................................................................
.............................. CYCLE   29 ..............................
........................................................................
   1    -12.5937807 -0.125938E+02  0.403E-01    5.83       0.0  T
   2    -12.5938024 -0.217313E-04  0.231E-01    5.83       1.0  T
   3    -12.5937899  0.125105E-04  0.477E-02    5.84       1.0  T
   4    -12.5938094 -0.194575E-04  0.957E-03    5.83       3.0  T
   5    -12.5938096 -0.201511E-06  0.394E-03    5.83       7.3  T
   6    -12.5938096 -0.965159E-08  0.499E-04    5.83      57.8  T
   7    -12.5938096 -0.107836E-09  0.195E-04    5.83     147.7  T
   8    -12.5938096 -0.222805E-09  0.371E-05    5.83     778.2  T
     SCC iter.                  ...        0 min,  0.003 sec
     gradient                   ...        0 min,  0.003 sec
 * total energy  :   -12.4249707 Eh     change       -0.1309283E-02 Eh
   gradient norm :     0.0234077 Eh/α   predicted    -0.1397762E-02 (   6.76%)
   displ. norm   :     0.5138598 α      lambda       -0.1983892E-02
   maximum displ.:     0.3630894 α      in ANC's #3, #2, #6, ...

........................................................................
.............................. CYCLE   30 ..............................
........................................................................
   1    -12.5904678 -0.125905E+02  0.409E-01    5.85       0.0  T
   2    -12.5905075 -0.396328E-04  0.241E-01    5.85       1.0  T
   3    -12.5904882  0.192335E-04  0.556E-02    5.84       1.0  T
   4    -12.5905210 -0.327792E-04  0.125E-02    5.85       2.3  T
   5    -12.5905215 -0.445167E-06  0.384E-03    5.85       7.5  T
   6    -12.5905215 -0.821223E-08  0.516E-04    5.85      55.9  T
   7    -12.5905215 -0.387592E-09  0.249E-04    5.85     116.0  T
   8    -12.5905215 -0.281471E-09  0.487E-05    5.85     593.0  T
     SCC iter.                  ...        0 min,  0.003 sec
     gradient                   ...        0 min,  0.003 sec
 * total energy  :   -12.4261579 Eh     change       -0.1187132E-02 Eh
   gradient norm :     0.0168452 Eh/α   predicted    -0.1253865E-02 (   5.62%)
   displ. norm   :     0.4306445 α      lambda       -0.3126469E-02
   maximum displ.:     0.2568578 α      in ANC's #6, #20, #16, ...

........................................................................
.............................. CYCLE   31 ..............................
........................................................................
   1    -12.6209983 -0.126210E+02  0.478E-01    6.07       0.0  T
   2    -12.6211472 -0.148925E-03  0.270E-01    6.07       1.0  T
   3    -12.6211313  0.159521E-04  0.101E-01    6.06       1.0  T
   4    -12.6211942 -0.629358E-04  0.168E-02    6.07       1.7  T
   5    -12.6211947 -0.517789E-06  0.334E-03    6.07       8.7  T
   6    -12.6211947 -0.325050E-08  0.104E-03    6.07      27.8  T
   7    -12.6211947 -0.301998E-09  0.353E-04    6.07      81.7  T
   8    -12.6211947 -0.839536E-09  0.657E-05    6.07     439.1  T
   9    -12.6211947 -0.540901E-11  0.298E-05    6.07     968.0  T
     SCC iter.                  ...        0 min,  0.003 sec
     gradient                   ...        0 min,  0.003 sec
 * total energy  :   -12.4246971 Eh     change        0.1460776E-02 Eh
   gradient norm :     0.0518523 Eh/α   predicted    -0.1853138E-02 (-226.86%)
   displ. norm   :     0.3004338 α      lambda       -0.5678548E-02
   maximum displ.:     0.2672337 α      in ANC's #3, #5, #2, ...

........................................................................
.............................. CYCLE   32 ..............................
........................................................................
   1    -12.5999890 -0.126000E+02  0.283E-01    5.92       0.0  T
   2    -12.6000728 -0.838015E-04  0.150E-01    5.92       1.0  T
   3    -12.6000767 -0.389562E-05  0.783E-02    5.93       1.0  T
   4    -12.6000985 -0.218213E-04  0.158E-02    5.93       1.8  T
   5    -12.6000991 -0.570733E-06  0.335E-03    5.93       8.6  T
   6    -12.6000991 -0.759062E-08  0.971E-04    5.93      29.7  T
   7    -12.6000991 -0.330202E-08  0.476E-04    5.93      60.6  T
   8    -12.6000991 -0.343004E-09  0.455E-05    5.93     633.9  T
   9    -12.6000991 -0.396483E-11  0.189E-05    5.93    1526.7  T
     SCC iter.                  ...        0 min,  0.003 sec
     gradient                   ...        0 min,  0.003 sec
 * total energy  :   -12.4277527 Eh     change       -0.3055653E-02 Eh
   gradient norm :     0.0120449 Eh/α   predicted    -0.3095551E-02 (   1.31%)
   displ. norm   :     0.5041507 α      lambda       -0.1072132E-02
   maximum displ.:     0.3493070 α      in ANC's #3, #2, #6, ...

........................................................................
.............................. CYCLE   33 ..............................
........................................................................
   1    -12.5939357 -0.125939E+02  0.394E-01    5.90       0.0  T
   2    -12.5939554 -0.197181E-04  0.225E-01    5.90       1.0  T
   3    -12.5939494  0.600686E-05  0.378E-02    5.90       1.0  T
   4    -12.5939631 -0.136738E-04  0.795E-03    5.90       3.6  T
   5    -12.5939631 -0.818564E-07  0.277E-03    5.90      10.4  T
   6    -12.5939632 -0.545100E-08  0.390E-04    5.90      74.0  T
   7    -12.5939632 -0.588768E-09  0.201E-04    5.90     143.3  T
   8    -12.5939632 -0.104693E-09  0.397E-05    5.90     727.6  T
   9    -12.5939632 -0.984102E-12  0.137E-05    5.90    2103.1  T
     SCC iter.                  ...        0 min,  0.003 sec
     gradient                   ...        0 min,  0.003 sec
 * total energy  :   -12.4284283 Eh     change       -0.6755321E-03 Eh
   gradient norm :     0.0122428 Eh/α   predicted    -0.6723129E-03 (  -0.48%)
   displ. norm   :     0.3317166 α      lambda       -0.6803832E-03
   maximum displ.:     0.1987892 α      in ANC's #3, #6, #20, ...

........................................................................
.............................. CYCLE   34 ..............................
........................................................................
   1    -12.5935180 -0.125935E+02  0.288E-01    5.90       0.0  T
   2    -12.5935259 -0.791521E-05  0.166E-01    5.90       1.0  T
   3    -12.5935290 -0.311459E-05  0.102E-02    5.90       2.8  T
   4    -12.5935295 -0.461905E-06  0.574E-03    5.91       5.0  T
   5    -12.5935295 -0.428385E-07  0.763E-04    5.91      37.8  T
   6    -12.5935295 -0.640760E-09  0.260E-04    5.91     111.1  T
   7    -12.5935295 -0.131006E-10  0.104E-04    5.91     276.7  T
   8    -12.5935295 -0.647855E-10  0.278E-05    5.91    1037.0  T
     SCC iter.                  ...        0 min,  0.003 sec
     gradient                   ...        0 min,  0.003 sec
 * total energy  :   -12.4289316 Eh     change       -0.5033624E-03 Eh
   gradient norm :     0.0160288 Eh/α   predicted    -0.3776230E-03 ( -24.98%)
   displ. norm   :     0.3801248 α      lambda       -0.1266238E-02
   maximum displ.:     0.1818624 α      in ANC's #6, #3, #1, ...

........................................................................
.............................. CYCLE   35 ..............................
........................................................................
   1    -12.6013597 -0.126014E+02  0.329E-01    5.92       0.0  T
   2    -12.6013817 -0.220679E-04  0.186E-01    5.92       1.0  T
   3    -12.6013728  0.894573E-05  0.444E-02    5.93       1.0  T
   4    -12.6013890 -0.162410E-04  0.756E-03    5.93       3.8  T
   5    -12.6013891 -0.116206E-06  0.300E-03    5.93       9.6  T
   6    -12.6013891 -0.335471E-08  0.427E-04    5.93      67.6  T
   7    -12.6013891 -0.370441E-10  0.123E-04    5.93     235.0  T
   8    -12.6013891 -0.105411E-09  0.382E-05    5.93     756.5  T
     SCC iter.                  ...        0 min,  0.003 sec
     gradient                   ...        0 min,  0.003 sec
 * total energy  :   -12.4296609 Eh     change       -0.7292107E-03 Eh
   gradient norm :     0.0173706 Eh/α   predicted    -0.7245967E-03 (  -0.63%)
   displ. norm   :     0.6375443 α      lambda       -0.1433359E-02
   maximum displ.:     0.3708027 α      in ANC's #6, #3, #1, ...

........................................................................
.............................. CYCLE   36 ..............................
........................................................................
   1    -12.5951411 -0.125951E+02  0.586E-01    5.91       0.0  T
   2    -12.5952218 -0.807270E-04  0.337E-01    5.91       1.0  T
   3    -12.5951991  0.227790E-04  0.714E-02    5.93       1.0  T
   4    -12.5952498 -0.507186E-04  0.145E-02    5.92       2.0  T
   5    -12.5952504 -0.589874E-06  0.512E-03    5.92       5.6  T
   6    -12.5952504 -0.896198E-08  0.636E-04    5.92      45.4  T
   7    -12.5952504 -0.344590E-09  0.337E-04    5.92      85.7  T
   8    -12.5952504 -0.459373E-09  0.730E-05    5.92     395.3  T
   9    -12.5952504 -0.857447E-11  0.269E-05    5.92    1071.2  T
     SCC iter.                  ...        0 min,  0.003 sec
     gradient                   ...        0 min,  0.003 sec
 * total energy  :   -12.4303331 Eh     change       -0.6722783E-03 Eh
   gradient norm :     0.0221524 Eh/α   predicted    -0.1007996E-02 (  49.94%)
   displ. norm   :     0.2926607 α      lambda       -0.1198459E-02
   maximum displ.:     0.1766444 α      in ANC's #1, #6, #4, ...

........................................................................
.............................. CYCLE   37 ..............................
........................................................................
   1    -12.6002026 -0.126002E+02  0.237E-01    5.98       0.0  T
   2    -12.6002502 -0.476147E-04  0.132E-01    5.99       1.0  T
   3    -12.6002494  0.767804E-06  0.603E-02    5.97       1.0  T
   4    -12.6002647 -0.153247E-04  0.120E-02    5.98       2.4  T
   5    -12.6002651 -0.392033E-06  0.338E-03    5.98       8.5  T
   6    -12.6002651 -0.372671E-08  0.663E-04    5.98      43.5  T
   7    -12.6002651 -0.165500E-08  0.304E-04    5.98      95.0  T
   8    -12.6002651 -0.156390E-09  0.358E-05    5.98     806.7  T
   9    -12.6002651 -0.109068E-11  0.151E-05    5.98    1916.4  T
     SCC iter.                  ...        0 min,  0.003 sec
     gradient                   ...        0 min,  0.003 sec
 * total energy  :   -12.4304020 Eh     change       -0.6884483E-04 Eh
   gradient norm :     0.0323306 Eh/α   predicted    -0.6505521E-03 ( 844.95%)
   displ. norm   :     0.2119588 α      lambda       -0.1647819E-02
   maximum displ.:     0.1145899 α      in ANC's #3, #1, #20, ...

........................................................................
.............................. CYCLE   38 ..............................
........................................................................
   1    -12.5990097 -0.125990E+02  0.188E-01    5.94       0.0  T
   2    -12.5990519 -0.422067E-04  0.923E-02    5.93       1.0  T
   3    -12.5990553 -0.341413E-05  0.555E-02    5.95       1.0  T
   4    -12.5990641 -0.885332E-05  0.789E-03    5.94       3.7  T
   5    -12.5990643 -0.188301E-06  0.294E-03    5.94       9.8  T
   6    -12.5990643 -0.890417E-09  0.588E-04    5.94      49.1  T
   7    -12.5990643 -0.186219E-08  0.257E-04    5.94     112.2  T
   8    -12.5990643 -0.980513E-10  0.264E-05    5.94    1093.0  T
     SCC iter.                  ...        0 min,  0.003 sec
     gradient                   ...        0 min,  0.003 sec
 * total energy  :   -12.4312536 Eh     change       -0.8516023E-03 Eh
   gradient norm :     0.0134471 Eh/α   predicted    -0.8609243E-03 (   1.09%)
   displ. norm   :     0.3636629 α      lambda       -0.9830146E-03
   maximum displ.:     0.1836451 α      in ANC's #1, #6, #3, ...

........................................................................
.............................. CYCLE   39 ..............................
........................................................................
   1    -12.5969902 -0.125970E+02  0.327E-01    5.91       0.0  T
   2    -12.5970216 -0.313436E-04  0.187E-01    5.91       1.0  T
   3    -12.5970139  0.765919E-05  0.452E-02    5.93       1.0  T
   4    -12.5970322 -0.182416E-04  0.119E-02    5.92       2.4  T
   5    -12.5970325 -0.385851E-06  0.296E-03    5.92       9.7  T
   6    -12.5970325 -0.647994E-08  0.564E-04    5.92      51.2  T
   7    -12.5970325 -0.307194E-09  0.292E-04    5.92      98.9  T
   8    -12.5970325 -0.326242E-09  0.456E-05    5.92     633.3  T
   9    -12.5970325 -0.217071E-11  0.183E-05    5.92    1576.9  T
     SCC iter.                  ...        0 min,  0.003 sec
     gradient                   ...        0 min,  0.003 sec
 * total energy  :   -12.4316960 Eh     change       -0.4424360E-03 Eh
   gradient norm :     0.0170708 Eh/α   predicted    -0.5565060E-03 (  25.78%)
   displ. norm   :     0.4147187 α      lambda       -0.7583580E-03
   maximum displ.:     0.2288342 α      in ANC's #1, #6, #4, ...

........................................................................
.............................. CYCLE   40 ..............................
........................................................................
   1    -12.5950171 -0.125950E+02  0.317E-01    5.90       0.0  T
   2    -12.5950322 -0.151201E-04  0.182E-01    5.89       1.0  T
   3    -12.5950338 -0.160264E-05  0.201E-02    5.90       1.4  T
   4    -12.5950379 -0.411409E-05  0.679E-03    5.89       4.3  T
   5    -12.5950381 -0.129393E-06  0.246E-03    5.89      11.7  T
   6    -12.5950381 -0.358867E-08  0.255E-04    5.89     113.4  T
   7    -12.5950381 -0.153033E-10  0.791E-05    5.89     364.9  T
   8    -12.5950381 -0.130171E-10  0.292E-05    5.89     987.4  T
     SCC iter.                  ...        0 min,  0.003 sec
     gradient                   ...        0 min,  0.003 sec
 * total energy  :   -12.4321407 Eh     change       -0.4446898E-03 Eh
   gradient norm :     0.0188843 Eh/α   predicted    -0.4443954E-03 (  -0.07%)
   displ. norm   :     0.4992558 α      lambda       -0.1567930E-02
   maximum displ.:     0.2808401 α      in ANC's #2, #1, #4, ...

........................................................................
.............................. CYCLE   41 ..............................
........................................................................
   1    -12.6113792 -0.126114E+02  0.243E-01    6.01       0.0  T
   2    -12.6114366 -0.573440E-04  0.127E-01    6.01       1.0  T
   3    -12.6114390 -0.241374E-05  0.625E-02    6.00       1.0  T
   4    -12.6114529 -0.139345E-04  0.108E-02    6.01       2.7  T
   5    -12.6114533 -0.355785E-06  0.248E-03    6.01      11.6  T
   6    -12.6114533 -0.284734E-08  0.534E-04    6.01      54.0  T
   7    -12.6114533 -0.110276E-10  0.160E-04    6.01     180.5  T
   8    -12.6114533 -0.171385E-09  0.397E-05    6.01     727.0  T
   9    -12.6114533 -0.417977E-11  0.157E-05    6.01    1842.3  T
     SCC iter.                  ...        0 min,  0.003 sec
     gradient                   ...        0 min,  0.003 sec
 * total energy  :   -12.4318249 Eh     change        0.3157753E-03 Eh
   gradient norm :     0.0310536 Eh/α   predicted    -0.9793614E-03 (-410.15%)
   displ. norm   :     0.3347671 α      lambda       -0.2318453E-02
   maximum displ.:     0.1508784 α      in ANC's #3, #1, #6, ...

........................................................................
.............................. CYCLE   42 ..............................
........................................................................
   1    -12.5978766 -0.125979E+02  0.310E-01    5.90       0.0  T
   2    -12.5979074 -0.308099E-04  0.177E-01    5.90       1.0  T
   3    -12.5978981  0.925855E-05  0.493E-02    5.91       1.0  T
   4    -12.5979170 -0.188997E-04  0.104E-02    5.90       2.8  T
   5    -12.5979173 -0.312911E-06  0.276E-03    5.90      10.5  T
   6    -12.5979173 -0.333605E-08  0.911E-04    5.90      31.7  T
   7    -12.5979173 -0.410208E-08  0.352E-04    5.90      82.0  T
   8    -12.5979173 -0.208756E-09  0.405E-05    5.90     713.1  T
   9    -12.5979173 -0.596856E-12  0.173E-05    5.90    1672.3  T
     SCC iter.                  ...        0 min,  0.003 sec
     gradient                   ...        0 min,  0.003 sec
 * total energy  :   -12.4327586 Eh     change       -0.9336637E-03 Eh
   gradient norm :     0.0172770 Eh/α   predicted    -0.1289136E-02 (  38.07%)
   displ. norm   :     0.2692604 α      lambda       -0.1426655E-02
   maximum displ.:     0.1671800 α      in ANC's #6, #3, #2, ...
 * RMSD in coord.:     2.1989090 α      energy gain  -0.3339714E-01 Eh

generating ANC from model Hessian ...
Using Lindh-Hessian (1995)
 Shifting diagonal of input Hessian by   9.895573721629611E-003
 Lowest  eigenvalues of input Hessian
   -0.000000   -0.000000   -0.000000    0.000000    0.000000    0.000000
    0.010000    0.010211    0.010278    0.010524    0.010646    0.010932
    0.025566    0.026555    0.032506    0.033631    0.058860    0.061093
 Highest eigenvalues
    0.913049    0.966525    1.505582    1.537371    1.759957    1.766396
 

........................................................................
.............................. CYCLE   43 ..............................
........................................................................
   1    -12.5907721 -0.125908E+02  0.277E-01    5.86       0.0  T
   2    -12.5908397 -0.675057E-04  0.159E-01    5.86       1.0  T
   3    -12.5908384  0.127375E-05  0.700E-02    5.88       1.0  T
   4    -12.5908602 -0.218002E-04  0.184E-02    5.87       1.6  T
   5    -12.5908611 -0.888163E-06  0.409E-03    5.87       7.1  T
   6    -12.5908611 -0.125168E-07  0.917E-04    5.87      31.5  T
   7    -12.5908611 -0.173915E-08  0.475E-04    5.87      60.8  T
   8    -12.5908611 -0.663904E-09  0.675E-05    5.87     427.7  T
   9    -12.5908611 -0.551381E-11  0.231E-05    5.87    1251.7  T
  10    -12.5908611 -0.227374E-12  0.395E-06    5.87    7310.0  T
     SCC iter.                  ...        0 min,  0.004 sec
     gradient                   ...        0 min,  0.004 sec
 * total energy  :   -12.4324301 Eh     change        0.3284529E-03 Eh
   gradient norm :     0.0307662 Eh/α   predicted     0.0000000E+00 (-100.00%)
   displ. norm   :     0.1692135 α      lambda       -0.1810692E-02
   maximum displ.:     0.1072078 α      in ANC's #1, #5, #8, ...

........................................................................
.............................. CYCLE   44 ..............................
........................................................................
   1    -12.5983426 -0.125983E+02  0.227E-01    5.93       0.0  T
   2    -12.5983610 -0.183792E-04  0.128E-01    5.93       1.0  T
   3    -12.5983575  0.346396E-05  0.340E-02    5.92       1.0  T
   4    -12.5983666 -0.904616E-05  0.879E-03    5.93       3.3  T
   5    -12.5983668 -0.239810E-06  0.226E-03    5.93      12.8  T
   6    -12.5983668 -0.328806E-08  0.423E-04    5.93      68.2  T
   7    -12.5983668 -0.160128E-09  0.215E-04    5.93     134.3  T
   8    -12.5983668 -0.191612E-09  0.317E-05    5.93     910.3  T
     SCC iter.                  ...        0 min,  0.003 sec
     gradient                   ...        0 min,  0.003 sec
 * total energy  :   -12.4335126 Eh     change       -0.1082415E-02 Eh
   gradient norm :     0.0098392 Eh/α   predicted    -0.9312680E-03 ( -13.96%)
   displ. norm   :     0.2464078 α      lambda       -0.9659758E-03
   maximum displ.:     0.1833920 α      in ANC's #1, #5, #10, ...

........................................................................
.............................. CYCLE   45 ..............................
........................................................................
   1    -12.6031176 -0.126031E+02  0.292E-01    5.97       0.0  T
   2    -12.6031427 -0.250905E-04  0.164E-01    5.96       1.0  T
   3    -12.6031370  0.567884E-05  0.414E-02    5.96       1.0  T
   4    -12.6031516 -0.145975E-04  0.801E-03    5.96       3.6  T
   5    -12.6031518 -0.162951E-06  0.241E-03    5.96      12.0  T
   6    -12.6031518 -0.260647E-08  0.363E-04    5.96      79.6  T
   7    -12.6031518 -0.623110E-10  0.803E-05    5.96     359.5  T
   8    -12.6031518 -0.239542E-10  0.338E-05    5.96     855.3  T
     SCC iter.                  ...        0 min,  0.003 sec
     gradient                   ...        0 min,  0.003 sec
 * total energy  :   -12.4338683 Eh     change       -0.3557592E-03 Eh
   gradient norm :     0.0112194 Eh/α   predicted    -0.5123147E-03 (  44.01%)
   displ. norm   :     0.1676936 α      lambda       -0.4312917E-03
   maximum displ.:     0.1220407 α      in ANC's #1, #5, #4, ...

........................................................................
.............................. CYCLE   46 ..............................
........................................................................
   1    -12.6010975 -0.126011E+02  0.183E-01    5.96       0.0  T
   2    -12.6011018 -0.423871E-05  0.104E-01    5.96       1.0  T
   3    -12.6011033 -0.146749E-05  0.762E-03    5.96       3.8  T
   4    -12.6011037 -0.440064E-06  0.317E-03    5.96       9.1  T
   5    -12.6011037 -0.440672E-08  0.437E-04    5.96      66.1  T
   6    -12.6011037 -0.169146E-09  0.134E-04    5.96     215.0  T
   7    -12.6011037 -0.377725E-10  0.662E-05    5.96     436.2  T
     SCC iter.                  ...        0 min,  0.003 sec
     gradient                   ...        0 min,  0.003 sec
 * total energy  :   -12.4342229 Eh     change       -0.3545679E-03 Eh
   gradient norm :     0.0095515 Eh/α   predicted    -0.2217114E-03 ( -37.47%)
   displ. norm   :     0.3236277 α      lambda       -0.5980223E-03
   maximum displ.:     0.2210799 α      in ANC's #1, #5, #4, ...

........................................................................
.............................. CYCLE   47 ..............................
........................................................................
   1    -12.5966996 -0.125967E+02  0.346E-01    5.93       0.0  T
   2    -12.5967156 -0.160021E-04  0.197E-01    5.93       1.0  T
   3    -12.5967177 -0.202509E-05  0.218E-02    5.93       1.3  T
   4    -12.5967227 -0.502474E-05  0.585E-03    5.93       4.9  T
   5    -12.5967227 -0.164112E-07  0.120E-03    5.93      24.1  T
   6    -12.5967227 -0.242090E-08  0.279E-04    5.93     103.5  T
   7    -12.5967227 -0.329591E-09  0.136E-04    5.93     212.7  T
   8    -12.5967227 -0.733014E-10  0.272E-05    5.93    1061.8  T
     SCC iter.                  ...        0 min,  0.003 sec
     gradient                   ...        0 min,  0.003 sec
 * total energy  :   -12.4346526 Eh     change       -0.4297348E-03 Eh
   gradient norm :     0.0101872 Eh/α   predicted    -0.3303339E-03 ( -23.13%)
   displ. norm   :     0.3236694 α      lambda       -0.4844447E-03
   maximum displ.:     0.2309933 α      in ANC's #1, #5, #4, ...

........................................................................
.............................. CYCLE   48 ..............................
........................................................................
   1    -12.5937955 -0.125938E+02  0.336E-01    5.90       0.0  T
   2    -12.5938084 -0.129108E-04  0.192E-01    5.90       1.0  T
   3    -12.5938124 -0.398894E-05  0.145E-02    5.90       2.0  T
   4    -12.5938142 -0.185723E-05  0.571E-03    5.90       5.1  T
   5    -12.5938142 -0.181381E-07  0.673E-04    5.90      42.9  T
   6    -12.5938142 -0.437634E-09  0.228E-04    5.90     126.8  T
   7    -12.5938142 -0.195804E-09  0.947E-05    5.90     304.7  T
   8    -12.5938142 -0.361844E-10  0.252E-05    5.90    1143.7  T
     SCC iter.                  ...        0 min,  0.003 sec
     gradient                   ...        0 min,  0.003 sec
 * total energy  :   -12.4350068 Eh     change       -0.3541945E-03 Eh
   gradient norm :     0.0134059 Eh/α   predicted    -0.2675992E-03 ( -24.45%)
   displ. norm   :     0.4273931 α      lambda       -0.8733596E-03
   maximum displ.:     0.2984059 α      in ANC's #1, #5, #6, ...

........................................................................
.............................. CYCLE   49 ..............................
........................................................................
   1    -12.5928916 -0.125929E+02  0.442E-01    5.86       0.0  T
   2    -12.5929159 -0.243287E-04  0.254E-01    5.86       1.0  T
   3    -12.5929181 -0.215425E-05  0.273E-02    5.86       1.1  T
   4    -12.5929263 -0.824771E-05  0.843E-03    5.86       3.4  T
   5    -12.5929264 -0.926294E-07  0.216E-03    5.86      13.4  T
   6    -12.5929264 -0.450808E-08  0.434E-04    5.86      66.5  T
   7    -12.5929264 -0.565327E-09  0.197E-04    5.86     146.8  T
   8    -12.5929264 -0.143057E-09  0.379E-05    5.86     761.2  T
   9    -12.5929264 -0.566658E-12  0.165E-05    5.86    1745.8  T
     SCC iter.                  ...        0 min,  0.003 sec
     gradient                   ...        0 min,  0.004 sec
 * total energy  :   -12.4356326 Eh     change       -0.6257436E-03 Eh
   gradient norm :     0.0129038 Eh/α   predicted    -0.5164457E-03 ( -17.47%)
   displ. norm   :     0.3942066 α      lambda       -0.1366026E-02
   maximum displ.:     0.2308818 α      in ANC's #6, #1, #5, ...

........................................................................
.............................. CYCLE   50 ..............................
........................................................................
   1    -12.6018708 -0.126019E+02  0.360E-01    5.84       0.0  T
   2    -12.6018972 -0.264258E-04  0.208E-01    5.84       1.0  T
   3    -12.6018910  0.622814E-05  0.378E-02    5.84       1.0  T
   4    -12.6019060 -0.149662E-04  0.966E-03    5.84       3.0  T
   5    -12.6019062 -0.266664E-06  0.301E-03    5.84       9.6  T
   6    -12.6019062 -0.722832E-08  0.416E-04    5.84      69.4  T
   7    -12.6019062 -0.325251E-10  0.151E-04    5.84     190.6  T
   8    -12.6019062 -0.138407E-09  0.314E-05    5.84     920.2  T
   9    -12.6019062 -0.208544E-11  0.154E-05    5.84    1876.3  T
     SCC iter.                  ...        0 min,  0.003 sec
     gradient                   ...        0 min,  0.004 sec
 * total energy  :   -12.4362732 Eh     change       -0.6406733E-03 Eh
   gradient norm :     0.0188124 Eh/α   predicted    -0.7891511E-03 (  23.18%)
   displ. norm   :     0.5980336 α      lambda       -0.1303476E-02
   maximum displ.:     0.4310224 α      in ANC's #1, #5, #6, ...

........................................................................
.............................. CYCLE   51 ..............................
........................................................................
   1    -12.5914626 -0.125915E+02  0.736E-01    5.82       0.0  T
   2    -12.5915494 -0.867703E-04  0.413E-01    5.82       1.0  T
   3    -12.5915376  0.117414E-04  0.669E-02    5.82       1.0  T
   4    -12.5915824 -0.448037E-04  0.127E-02    5.82       2.3  T
   5    -12.5915827 -0.314240E-06  0.530E-03    5.82       5.4  T
   6    -12.5915827 -0.715670E-08  0.907E-04    5.82      31.8  T
   7    -12.5915827 -0.596244E-08  0.353E-04    5.82      81.7  T
   8    -12.5915827 -0.226320E-09  0.619E-05    5.82     466.7  T
   9    -12.5915827 -0.247447E-11  0.251E-05    5.82    1148.2  T
     SCC iter.                  ...        0 min,  0.003 sec
     gradient                   ...        0 min,  0.004 sec
[...]
     SCC iter.                  ...        0 min,  0.003 sec
     gradient                   ...        0 min,  0.004 sec
 * total energy  :   -12.4607408 Eh     change       -0.6392137E-05 Eh
   gradient norm :     0.0013321 Eh/α   predicted    -0.3249891E-05 ( -49.16%)
   displ. norm   :     0.0274168 α      lambda       -0.8010714E-05
   maximum displ.:     0.0164600 α      in ANC's #2, #6, #22, ...

........................................................................
.............................. CYCLE   62 ..............................
........................................................................
   1    -12.5910570 -0.125911E+02  0.378E-02    5.42       0.0  T
   2    -12.5910572 -0.231739E-06  0.211E-02    5.42       1.4  T
   3    -12.5910573 -0.432553E-07  0.239E-03    5.42      12.1  T
   4    -12.5910573 -0.531822E-07  0.777E-04    5.42      37.1  T
   5    -12.5910573 -0.321467E-09  0.230E-04    5.42     125.8  T
   6    -12.5910573 -0.742535E-10  0.421E-05    5.42     684.9  T
   7    -12.5910573 -0.230926E-12  0.150E-05    5.42    1926.3  T
     SCC iter.                  ...        0 min,  0.003 sec
     gradient                   ...        0 min,  0.004 sec
 * total energy  :   -12.4607456 Eh     change       -0.4820290E-05 Eh
   gradient norm :     0.0011908 Eh/α   predicted    -0.4006111E-05 ( -16.89%)
   displ. norm   :     0.0260887 α      lambda       -0.5916150E-05
   maximum displ.:     0.0155926 α      in ANC's #2, #6, #4, ...

........................................................................
.............................. CYCLE   63 ..............................
........................................................................
   1    -12.5911081 -0.125911E+02  0.345E-02    5.42       0.0  T
   2    -12.5911083 -0.182872E-06  0.195E-02    5.42       1.5  T
   3    -12.5911083 -0.828385E-08  0.245E-03    5.42      11.8  T
   4    -12.5911084 -0.694608E-07  0.744E-04    5.42      38.8  T
   5    -12.5911084 -0.406056E-09  0.156E-04    5.42     185.3  T
   6    -12.5911084 -0.139995E-10  0.375E-05    5.42     770.0  T
   7    -12.5911084 -0.408562E-12  0.157E-05    5.42    1833.6  T
     SCC iter.                  ...        0 min,  0.003 sec
     gradient                   ...        0 min,  0.004 sec
 * total energy  :   -12.4607506 Eh     change       -0.5025038E-05 Eh
   gradient norm :     0.0011965 Eh/α   predicted    -0.2961399E-05 ( -41.07%)
   displ. norm   :     0.0327042 α      lambda       -0.4722251E-05
   maximum displ.:     0.0238069 α      in ANC's #4, #2, #6, ...

........................................................................
.............................. CYCLE   64 ..............................
........................................................................
   1    -12.5912141 -0.125912E+02  0.329E-02    5.42       0.0  T
   2    -12.5912142 -0.121611E-06  0.187E-02    5.42       1.5  T
   3    -12.5912142 -0.387526E-07  0.150E-03    5.42      19.3  T
   4    -12.5912143 -0.154729E-07  0.710E-04    5.42      40.6  T
   5    -12.5912143 -0.437216E-09  0.823E-05    5.42     350.7  T
   6    -12.5912143 -0.539480E-11  0.317E-05    5.42     911.9  T
   7    -12.5912143 -0.116884E-11  0.133E-05    5.42    2172.8  T
     SCC iter.                  ...        0 min,  0.003 sec
     gradient                   ...        0 min,  0.004 sec
 * total energy  :   -12.4607553 Eh     change       -0.4625126E-05 Eh
   gradient norm :     0.0009803 Eh/α   predicted    -0.2361646E-05 ( -48.94%)
   displ. norm   :     0.0466478 α      lambda       -0.4631235E-05
   maximum displ.:     0.0401798 α      in ANC's #4, #6, #2, ...

........................................................................
.............................. CYCLE   65 ..............................
........................................................................
   1    -12.5915522 -0.125916E+02  0.452E-02    5.42       0.0  T
   2    -12.5915525 -0.310576E-06  0.256E-02    5.42       1.1  T
   3    -12.5915525 -0.122825E-07  0.331E-03    5.42       8.7  T
   4    -12.5915526 -0.119902E-06  0.972E-04    5.42      29.7  T
   5    -12.5915526 -0.595888E-09  0.238E-04    5.42     121.4  T
   6    -12.5915526 -0.511253E-10  0.609E-05    5.42     473.7  T
   7    -12.5915526 -0.228972E-11  0.287E-05    5.42    1004.6  T
   8    -12.5915526 -0.423306E-11  0.553E-06    5.42    5218.1  T
     SCC iter.                  ...        0 min,  0.003 sec
     gradient                   ...        0 min,  0.004 sec
 * total energy  :   -12.4607574 Eh     change       -0.2179662E-05 Eh
   gradient norm :     0.0008162 Eh/α   predicted    -0.2316110E-05 (   6.26%)
   displ. norm   :     0.0085306 α      lambda       -0.1293186E-05
   maximum displ.:     0.0056016 α      in ANC's #4, #2, #3, ...

........................................................................
.............................. CYCLE   66 ..............................
........................................................................
   1    -12.5914496 -0.125914E+02  0.951E-03    5.42       0.0  T
   2    -12.5914496 -0.165970E-07  0.536E-03    5.42       5.4  T
   3    -12.5914496  0.738400E-09  0.879E-04    5.42      32.9  T
   4    -12.5914496 -0.715185E-08  0.275E-04    5.42     104.8  T
   5    -12.5914496 -0.717879E-10  0.532E-05    5.42     543.0  T
   6    -12.5914496 -0.211031E-11  0.221E-05    5.42    1304.7  T
   7    -12.5914496 -0.843769E-12  0.820E-06    5.42    3518.3  T
     SCC iter.                  ...        0 min,  0.003 sec
     gradient                   ...        0 min,  0.004 sec
 * total energy  :   -12.4607585 Eh     change       -0.1084148E-05 Eh
   gradient norm :     0.0002496 Eh/α   predicted    -0.6489565E-06 ( -40.14%)
   displ. norm   :     0.0055422 α      lambda       -0.2434658E-06
   maximum displ.:     0.0026604 α      in ANC's #3, #6, #4, ...
 * RMSD in coord.:     0.8463968 α      energy gain  -0.1250209E-01 Eh

generating ANC from model Hessian ...
Using Lindh-Hessian (1995)
 Shifting diagonal of input Hessian by   1.206952277930858E-002
 Lowest  eigenvalues of input Hessian
    0.010000   -0.000000   -0.000000   -0.000000   -0.000000   -0.000000
    0.000000    0.012334    0.012440    0.012777    0.012990    0.013139
    0.029053    0.029406    0.033137    0.036384    0.059635    0.062135
 Highest eigenvalues
    0.942499    0.943959    1.570082    1.571176    1.828691    1.832942
 

........................................................................
.............................. CYCLE   67 ..............................
........................................................................
   1    -12.5914749 -0.125915E+02  0.703E-03    5.42       0.0  T
   2    -12.5914749 -0.673936E-08  0.399E-03    5.42       7.2  T
   3    -12.5914749 -0.941265E-09  0.434E-04    5.42      66.5  T
   4    -12.5914749 -0.194246E-08  0.142E-04    5.42     203.5  T
   5    -12.5914749 -0.109814E-10  0.348E-05    5.42     830.0  T
   6    -12.5914749 -0.737188E-12  0.826E-06    5.42    3492.9  T
     SCC iter.                  ...        0 min,  0.002 sec
     gradient                   ...        0 min,  0.004 sec
 * total energy  :   -12.4607588 Eh     change       -0.2658599E-06 Eh
   gradient norm :     0.0001509 Eh/α   predicted     0.0000000E+00 (-100.00%)
   displ. norm   :     0.0062546 α      lambda       -0.3854695E-06
   maximum displ.:     0.0032752 α      in ANC's #5, #9, #4, ...

........................................................................
.............................. CYCLE   68 ..............................
........................................................................
   1    -12.5914604 -0.125915E+02  0.983E-03    5.42       0.0  T
   2    -12.5914604 -0.120395E-07  0.556E-03    5.42       5.2  T
   3    -12.5914604 -0.425570E-08  0.403E-04    5.42      71.6  T
   4    -12.5914604 -0.112625E-08  0.186E-04    5.42     155.1  T
   5    -12.5914604 -0.168967E-10  0.336E-05    5.42     858.7  T
   6    -12.5914604 -0.101430E-11  0.882E-06    5.42    3271.6  T
     SCC iter.                  ...        0 min,  0.002 sec
     gradient                   ...        0 min,  0.004 sec
 * total energy  :   -12.4607588 Eh     change       -0.4639666E-07 Eh
   gradient norm :     0.0002296 Eh/α   predicted    -0.1923653E-06 ( 314.61%)
   displ. norm   :     0.0066276 α      lambda       -0.4690453E-06
   maximum displ.:     0.0038585 α      in ANC's #5, #4, #1, ...

........................................................................
.............................. CYCLE   69 ..............................
........................................................................
   1    -12.5914166 -0.125914E+02  0.765E-03    5.42       0.0  T
   2    -12.5914166 -0.158479E-07  0.434E-03    5.42       6.7  T
   3    -12.5914166  0.600889E-08  0.105E-03    5.42      27.6  T
   4    -12.5914166 -0.113213E-07  0.204E-04    5.42     141.4  T
   5    -12.5914166 -0.771152E-10  0.720E-05    5.42     400.8  T
   6    -12.5914166 -0.751399E-12  0.137E-05    5.42    2112.4  T
   7    -12.5914166 -0.107470E-11  0.583E-06    5.42    4949.6  T
     SCC iter.                  ...        0 min,  0.003 sec
     gradient                   ...        0 min,  0.004 sec
 * total energy  :   -12.4607591 Eh     change       -0.3029502E-06 Eh
   gradient norm :     0.0001299 Eh/α   predicted    -0.2334974E-06 ( -22.93%)
   displ. norm   :     0.0023381 α      lambda       -0.8519311E-07
   maximum displ.:     0.0009777 α      in ANC's #2, #8, #3, ...

........................................................................
.............................. CYCLE   70 ..............................
........................................................................
   1    -12.5914305 -0.125914E+02  0.249E-03    5.42       0.0  T
   2    -12.5914305 -0.154759E-08  0.139E-03    5.42      20.7  T
   3    -12.5914305  0.504958E-09  0.315E-04    5.42      91.7  T
   4    -12.5914305 -0.102006E-08  0.597E-05    5.42     483.6  T
   5    -12.5914305 -0.604850E-11  0.205E-05    5.42    1406.2  T
   6    -12.5914305 -0.264677E-12  0.518E-06    5.42    5573.6  T
     SCC iter.                  ...        0 min,  0.002 sec
     gradient                   ...        0 min,  0.004 sec
 * total energy  :   -12.4607592 Eh     change       -0.3116699E-07 Eh
   gradient norm :     0.0000809 Eh/α   predicted    -0.4438794E-07 (  42.42%)
   displ. norm   :     0.0018788 α      lambda       -0.5620017E-07
   maximum displ.:     0.0011216 α      in ANC's #10, #1, #2, ...

   *** GEOMETRY OPTIMIZATION CONVERGED AFTER 70 ITERATIONS ***

------------------------------------------------------------------------
 total energy gain :          -0.0128931 Eh       -8.0905 kcal/mol
 total RMSD        :           3.0738329 α         1.6266 Å
------------------------------------------------------------------------

 ANCopt (total)                0 d,  0 h,  0 min,  0.784 sec
 optimizer setup                ...        0 min,  0.001 sec (  0.114%)
 model hessian                  ...        0 min,  0.011 sec (  1.346%)
 ANC generation                 ...        0 min,  0.002 sec (  0.276%)
 coordinate transformation      ...        0 min,  0.001 sec (  0.069%)
 single point calculation       ...        0 min,  0.665 sec ( 84.760%)
 optimization log               ...        0 min,  0.041 sec (  5.183%)
 hessian update                 ...        0 min,  0.001 sec (  0.077%)
 rational function              ...        0 min,  0.008 sec (  0.987%)

================
 final structure:
================
$coord
    3.75361458443653   -0.73124677196406    1.26916823426139      N 
    2.43644023347230    0.09143170891397   -0.81929467376957      B 
   -3.57004291482472   -0.24557614113651    0.79083513895682      N 
   -2.78641592072080    0.87016264129585   -1.43263084101585      B 
   -3.27381106839672    0.50113403681815    2.50339222004839      H 
    3.00539152588408    2.05372517462921   -1.67277166104279      H 
   -1.55585808486455    2.73222473631838   -1.14450344376254      H 
    3.40779011035721   -2.29060556880327    2.29655554496399      H 
    5.32521763624814    0.15797848604043    1.82728582863652      H 
   -4.31835745459599   -1.97193388516498    0.91739375463865      H 
    0.87355298233015   -1.21987983290770   -1.73626752176501      H 
   -3.46200159526295   -0.07429329374327   -3.33486104172832      H 
$end
 
 Bond Distances (Angstroems)
 ---------------------------
N1-B2=1.3772         N1-H8=1.0050         N1-H9=1.0002         B2-N1=1.3772         B2-H6=1.1717         B2-H11=1.1836        
N3-B4=1.3802         N3-H5=1.0010         N3-H10=0.9979        B4-N3=1.3802         B4-H7=1.1909         B4-H12=1.1794        
H5-N3=1.0010         H6-B2=1.1717         H7-B4=1.1909         H8-N1=1.0050         H9-N1=1.0002         H10-N3=0.9979        
H11-B2=1.1836        H12-B4=1.1794        
 B  H  Rav=1.1814 sigma=0.0069  Rmin=1.1717  Rmax=1.1909     4
 N  H  Rav=1.0010 sigma=0.0025  Rmin=0.9979  Rmax=1.0050     4
 N  B  Rav=1.3787 sigma=0.0015  Rmin=1.3772  Rmax=1.3802     2
 
 selected bond angles (degree)
 --------------------
H8-N1-B2=126.98                H9-N1-B2=120.60                H9-N1-H8=112.21                H6-B2-N1=117.35                
H11-B2-N1=119.82               H11-B2-H6=122.76               H5-N3-B4=123.77                H10-N3-B4=124.61               
H10-N3-H5=111.27               H7-B4-N3=114.15                H12-B4-N3=117.08               H12-B4-H7=128.73               
 
 selected dihedral angles (degree)
 ---------------------------------
H6-B2-N1-H8=174.79            H6-B2-N1-H9=349.08            H11-B2-N1-H8=351.77           H11-B2-N1-H9=166.06           
H7-B4-N3-H5=  5.06            H7-B4-N3-H10=192.40           H12-B4-N3-H5=187.11           H12-B4-N3-H10= 14.46          
 
 CMA Distance (Angstroems)
 ---------------------------
R(CMA):  3.4105

========================================================================
 FINAL SINGLEPOINT CALCULATION ON OPTIMIZED GEOMETRY
========================================================================

          ...................................................
          :                      SETUP                      :
          :.................................................:
          :  # basis functions                  24          :
          :  # atomic orbitals                  24          :
          :  # shells                           16          :
          :  # electrons                        24          :
          :  max. iterations                    50          :
          :  Hamiltonian                  GFN2-xTB          :
          :  restarted?                      false          :
          :  GBSA solvation                  false          :
          :  PC potential                    false          :
          :  electronic temp.          300.0000000     K    :
          :  accuracy                    1.0000000          :
          :  -> integral cutoff          0.2500000E+02      :
          :  -> integral neglect         0.1000000E-07      :
          :  -> SCF convergence          0.1000000E-05 Eh   :
          :  -> wf. convergence          0.1000000E-03 e    :
          :  Broyden damping             0.4000000          :
          ...................................................

 iter      E             dE          RMSdq      gap      omega  full diag
   1    -12.5914305 -0.125914E+02  0.179E-06    5.42       0.0  T
   2    -12.5914305  0.000000E+00  0.684E-07    5.42   42222.5  T
   3    -12.5914305 -0.106581E-13  0.419E-07    5.42   68937.3  T

   *** convergence criteria satisfied after 3 iterations ***

         #    Occupation            Energy/Eh            Energy/eV
      -------------------------------------------------------------
         1        2.0000           -0.5977344             -16.2652
       ...           ...                  ...                  ...
         6        2.0000           -0.4987945             -13.5729
         7        2.0000           -0.4401030             -11.9758
         8        2.0000           -0.4203149             -11.4374
         9        2.0000           -0.4165070             -11.3337
        10        2.0000           -0.4073938             -11.0858
        11        2.0000           -0.3924457             -10.6790
        12        2.0000           -0.3824589             -10.4072 (HOMO)
        13                         -0.1833433              -4.9890 (LUMO)
        14                         -0.1445755              -3.9341
        15                          0.0678901               1.8474
        16                          0.0826653               2.2494
        17                          0.1938445               5.2748
       ...                                ...                  ...
        24                          0.5287545              14.3881
      -------------------------------------------------------------
                  HL-Gap            0.1991156 Eh            5.4182 eV
             Fermi-level           -0.2829011 Eh           -7.6981 eV

 SCC (total)                   0 d,  0 h,  0 min,  0.077 sec
 SCC setup                      ...        0 min,  0.000 sec (  0.222%)
 Dispersion                     ...        0 min,  0.000 sec (  0.093%)
 integral evaluation            ...        0 min,  0.002 sec (  2.647%)
 zeroth order Hamiltonian       ...        0 min,  0.000 sec (  0.045%)
 iterations                     ...        0 min,  0.001 sec (  1.537%)
 molecular gradient             ...        0 min,  0.003 sec (  4.396%)
 printout                       ...        0 min,  0.070 sec ( 91.019%)

         :::::::::::::::::::::::::::::::::::::::::::::::::::::
         ::                     SUMMARY                     ::
         :::::::::::::::::::::::::::::::::::::::::::::::::::::
         :: total energy              -12.460759178710 Eh   ::
         :: gradient norm               0.000080875305 Eh/α ::
         :: HOMO-LUMO gap               5.418211861067 eV   ::
         ::.................................................::
         :: SCC energy                -12.591430468942 Eh   ::
         :: -> isotropic ES             0.059971630646 Eh   ::
         :: -> anisotropic ES           0.012767628414 Eh   ::
         :: -> anisotropic XC           0.004998766601 Eh   ::
         :: -> dispersion              -0.005039790514 Eh   ::
         :: repulsion energy            0.172597522512 Eh   ::
         :: add. restraining           -0.041934908331 Eh   ::
         :::::::::::::::::::::::::::::::::::::::::::::::::::::

  # of points on xtbopt.log:           70
  doing short optimizations without Vbias ... 
   10  unconstrained dE :      0.019686
   20  unconstrained dE :      0.015932
   30  unconstrained dE :      0.003331
   40  unconstrained dE :      0.003337
   50  unconstrained dE :      0.003718
   60  unconstrained dE :      0.004030
   70  unconstrained dE :      0.003991
 final path written to xtbpath_3.xyz
 
 energies in kcal/mol, RMSD in Bohr
run 1  barrier:   3.66  dE:   1.45  ed-prod RMSD:  3.05  ed-startpath RMSD:  0.05  prod-endpath RMSD:  2.98
run 2  barrier:   5.88  dE:   1.86  ed-prod RMSD:  3.05  ed-startpath RMSD:  0.05  prod-endpath RMSD:  2.96
run 3  barrier:  12.35  dE:   2.50  ed-prod RMSD:  3.05  ed-startpath RMSD:  0.05  prod-endpath RMSD:  2.94
 check potential xtbpath.dat (cummu. dRMSD in Bohr vs. E in kcal)

------------------------------------------------------------------------
 * finished run on 2020/07/03 at 17:35:57.314     
------------------------------------------------------------------------
 total:
 * wall-time:     0 d,  0 h,  0 min, 36.352 sec
 *  cpu-time:     0 d,  0 h,  0 min,  8.564 sec
 * ratio c/w:     0.236 speedup
 SCF:
 * wall-time:     0 d,  0 h,  0 min,  0.175 sec
 *  cpu-time:     0 d,  0 h,  0 min,  0.012 sec
 * ratio c/w:     0.068 speedup

