      -----------------------------------------------------------      
     |                   =====================                   |     
     |                           x T B                           |     
     |                   =====================                   |     
     |                         S. Grimme                         |     
     |          Mulliken Center for Theoretical Chemistry        |     
     |                    University of Bonn                     |     
     |                 Version 6.1.4 (SAW190525)                 |     
      -----------------------------------------------------------      

   This program is distributed in the hope that it will be useful,
   but WITHOUT ANY WARRANTY; without even the implied warranty of
   MERCHANTABILITY or FITNESS FOR A PARTICULAR PURPOSE.
   
   FOR NON-COMMERCIAL, ACADEMIA USE ONLY.
   
   Cite this work as:
   S. Grimme, C. Bannwarth, P. Shushkov, J. Comput. Theory Chem., 2017,
   13, 1989-2009. DOI: 10.1021/acs.jctc.7b00118
   C. Bannwarth, S. Ehlert and S. Grimme., J. Comput. Theory Chem., 2019,
   just accepted. DOI: 10.1021/acs.jctc.8b01176
   
   for sTDA-xTB:
   S. Grimme and C. Bannwarth, J. Chem. Phys., 2016, 145, 054103.
   DOI: 10.1063/1.4959605
   
   in the mass-spec context:
   V. Asgeirsson, C. Bauer and S. Grimme, Chem. Sci., 2017, 8, 4879.
   DOI: 10.1039/c7sc00601b
   
   for metadynamics refer to:
   S. Grimme, J. Chem. Theory Comput. Article ASAP, 2019,
   DOI: 10.1021/acs.jctc.9b00143
   
   with help from (in alphabetical order)
   C. Bannwarth, F. Bohle, G. Brandenburg, E. Caldeweyher, M. Checinski,
   S. Dohm, S. Ehlert, S. Ehrlich, F. März, H. Neugebauer, J. Pisarek,
   P. Pracht, P. Shushkov, and S. Spicher.
   
 * started run on 2020/07/03 at 15:53:59.235     

           -------------------------------------------------
          |                Calculation Setup                |
           -------------------------------------------------

          program call               : /opt/xtb/6.1/xtb-190527/bin/xtb 1r.xyz --path --input path.inp --gfn2 --chrg 0
          hostname                   : mnode006
          coordinate file            : 1r.xyz
          omp threads                :                     1
          number of atoms            :                    12
          number of electrons        :                    24
          charge                     :                     0
          spin                       :                   0.0
          first test random number   :      0.48204119176301


molecular fragmentation (1/2 indicates fragments):
112221111222
# atoms in fragment 1/2:     6     6
 fragment masses (1/2) :       28.85       28.85
CMA distance (Bohr)    :   7.111
constraining FC (au)   :  0.0500

########################################################################
# WARNING! Please study the warnings concerning your input carefully
#  - XTBPATH is not set, using XTBHOME instead
########################################################################

           ------------------------------------------------- 
          |                 G F N 2 - x T B                 |
          | Geometry, Frequencies, Noncovalent interactions |
          |            JCTC 2018 parametrisation            |
           ------------------------------------------------- 
             k(s)              :                1.8500
             k(p)              :                2.2300
             k(d)              :                2.2300
             k(f)              :                2.0000
             kEN (H0ij)        :               -2.0000
             D4 a1             :                0.5200
             D4 a2             :                5.0000
             D4 s6             :                1.0000
             D4 s8             :                2.7000
             D4 s9             :                5.0000
             alphaj            :                2.0000

  Z AO/shell   Hii/eV     exponent
  1     Wed Apr 25 08:07:45 CEST 2018   EN: 2.200 GM2: 0.406  GM3: 0.0800  RAES: 1.40
     1s    -10.707211    1.230000
  5     Mon Apr 23 23:47:44 CEST 2018   EN: 2.040 GM2: 0.514  GM3: 0.0946  RAES: 5.00
     2s     -9.224376    1.479444
     2p     -7.419002    1.479805
  7     Wed Apr 25 08:07:45 CEST 2018   EN: 3.040 GM2: 0.461  GM3:-0.0640  RAES: 1.90
     2s    -16.686243    2.339881
     2p    -12.523956    2.014332


            Z     q(EN)     CN     RAES       Cart. coordinates
     1  N   5.0   -0.64    2.99    1.92     3.80233     0.85034     0.97769
     2  B   3.0   -0.14    2.94    5.00     6.06040     0.78094    -0.37834
     3  N   5.0   -0.63    2.99    1.92     0.45824    -4.35918     0.06186
     4  B   3.0   -0.13    2.94    5.00    -1.85525    -3.12741    -0.04453
     5  H   1.0    0.28    1.00    1.43     2.11499    -3.43315     0.29096
     6  H   1.0    0.12    0.97    1.43     8.00373     0.53373     0.74536
     7  H   1.0    0.12    0.97    1.43     5.99038     0.94630    -2.62866
     8  H   1.0    0.26    1.00    1.43     2.09263     1.12271     0.16966
     9  H   1.0    0.26    1.00    1.43     3.72675     0.78995     2.88395
    10  H   1.0    0.26    1.00    1.43     0.63920    -6.24999    -0.11130
    11  H   1.0    0.12    0.97    1.43    -3.75178    -4.31764    -0.33404
    12  H   1.0    0.12    0.97    1.43    -1.90694    -0.87046     0.16324

           ------------------------------------------------- 
          |        Self-Consistent Charge Iterations        |
           ------------------------------------------------- 

          ...................................................
          :                      SETUP                      :
          :.................................................:
          :  # basis functions                  24          :
          :  # atomic orbitals                  24          :
          :  # shells                           16          :
          :  # electrons                        24          :
          :  max. iterations                   250          :
          :  Hamiltonian                  GFN2-xTB          :
          :  restarted?                      false          :
          :  GBSA solvation                  false          :
          :  PC potential                    false          :
          :  electronic temp.          300.0000000     K    :
          :  accuracy                    1.0000000          :
          :  -> integral cutoff          0.2500000E+02      :
          :  -> integral neglect         0.1000000E-07      :
          :  -> SCF convergence          0.1000000E-05 Eh   :
          :  -> wf. convergence          0.1000000E-03 e    :
          :  Broyden damping             0.4000000          :
          ...................................................

 iter      E             dE          RMSdq      gap      omega  full diag
   1    -12.4020786 -0.124021E+02  0.974E+00    6.16       0.0  T
   2    -12.5637709 -0.161692E+00  0.650E+00    5.67       1.0  T
   3    -12.5724011 -0.863015E-02  0.288E+00    5.80       1.0  T
   4    -12.5815103 -0.910920E-02  0.101E+00    5.73       1.0  T
   5    -12.5870752 -0.556492E-02  0.344E-01    5.97       1.0  T
   6    -12.5876952 -0.620015E-03  0.123E-01    5.89       1.0  T
   7    -12.5878395 -0.144251E-03  0.193E-02    5.91       1.5  T
   8    -12.5878395 -0.684008E-07  0.792E-03    5.91       3.6  T
   9    -12.5878393  0.295035E-06  0.693E-03    5.91       4.2  T
  10    -12.5878399 -0.693425E-06  0.602E-04    5.91      47.9  T
  11    -12.5878399 -0.131914E-08  0.695E-05    5.91     415.3  T

   *** convergence criteria satisfied after 11 iterations ***

         #    Occupation            Energy/Eh            Energy/eV
      -------------------------------------------------------------
         1        2.0000           -0.5995809             -16.3154
       ...           ...                  ...                  ...
         6        2.0000           -0.5084170             -13.8347
         7        2.0000           -0.4446560             -12.0997
         8        2.0000           -0.4421726             -12.0321
         9        2.0000           -0.4175525             -11.3622
        10        2.0000           -0.4170905             -11.3496
        11        2.0000           -0.4060025             -11.0479
        12        2.0000           -0.4027809             -10.9602 (HOMO)
        13                         -0.1854841              -5.0473 (LUMO)
        14                         -0.1836537              -4.9975
        15                          0.0340793               0.9273
        16                          0.0718599               1.9554
        17                          0.1710430               4.6543
       ...                                ...                  ...
        24                          0.4617633              12.5652
      -------------------------------------------------------------
                  HL-Gap            0.2172968 Eh            5.9129 eV
             Fermi-level           -0.2941325 Eh           -8.0038 eV

 SCC (total)                   0 d,  0 h,  0 min,  0.155 sec
 SCC setup                      ...        0 min,  0.000 sec (  0.289%)
 Dispersion                     ...        0 min,  0.000 sec (  0.085%)
 integral evaluation            ...        0 min,  0.002 sec (  1.311%)
 zeroth order Hamiltonian       ...        0 min,  0.079 sec ( 50.863%)
 iterations                     ...        0 min,  0.005 sec (  3.175%)
 molecular gradient             ...        0 min,  0.003 sec (  2.199%)
 printout                       ...        0 min,  0.065 sec ( 42.056%)

         :::::::::::::::::::::::::::::::::::::::::::::::::::::
         ::                     SUMMARY                     ::
         :::::::::::::::::::::::::::::::::::::::::::::::::::::
         :: total energy              -12.430967881149 Eh   ::
         :: gradient norm               0.028203632356 Eh/α ::
         :: HOMO-LUMO gap               5.912946352473 eV   ::
         ::.................................................::
         :: SCC energy                -12.587839946287 Eh   ::
         :: -> isotropic ES             0.058684790225 Eh   ::
         :: -> anisotropic ES           0.011490922816 Eh   ::
         :: -> anisotropic XC           0.005965457740 Eh   ::
         :: -> dispersion              -0.004448867355 Eh   ::
         :: repulsion energy            0.156868055235 Eh   ::
         :: add. restraining            0.000000000000 Eh   ::
         :::::::::::::::::::::::::::::::::::::::::::::::::::::

           -------------------------------------------------
          |                Property Printout                |
           -------------------------------------------------

    * Orbital Energies and Occupations

         #    Occupation            Energy/Eh            Energy/eV
      -------------------------------------------------------------
         1        2.0000           -0.5995809             -16.3154
         2        2.0000           -0.5961264             -16.2214
         3        2.0000           -0.5272274             -14.3466
         4        2.0000           -0.5210131             -14.1775
         5        2.0000           -0.5100638             -13.8795
         6        2.0000           -0.5084170             -13.8347
         7        2.0000           -0.4446560             -12.0997
         8        2.0000           -0.4421726             -12.0321
         9        2.0000           -0.4175525             -11.3622
        10        2.0000           -0.4170905             -11.3496
        11        2.0000           -0.4060025             -11.0479
        12        2.0000           -0.4027809             -10.9602 (HOMO)
        13                         -0.1854841              -5.0473 (LUMO)
        14                         -0.1836537              -4.9975
        15                          0.0340793               0.9273
        16                          0.0718599               1.9554
        17                          0.1710430               4.6543
        18                          0.1892961               5.1510
        19                          0.3050127               8.2998
        20                          0.3090911               8.4108
        21                          0.4243375              11.5468
        22                          0.4332082              11.7882
        23                          0.4499275              12.2432
        24                          0.4617633              12.5652
      -------------------------------------------------------------
                  HL-Gap            0.2172968 Eh            5.9129 eV
             Fermi-level           -0.2941325 Eh           -8.0038 eV

   #   Z        covCN         q      C6AA      α(0)
   1   7 N      2.561    -0.320    28.265     7.896
   2   5 B      2.698     0.233    17.967     7.113
   3   7 N      2.561    -0.317    28.174     7.883
   4   5 B      2.696     0.235    17.955     7.112
   5   1 H      0.860     0.167     1.292     1.780
   6   1 H      0.929    -0.119     6.281     3.919
   7   1 H      0.929    -0.118     6.243     3.907
   8   1 H      0.860     0.169     1.277     1.770
   9   1 H      0.860     0.158     1.347     1.818
  10   1 H      0.860     0.159     1.343     1.816
  11   1 H      0.929    -0.117     6.193     3.891
  12   1 H      0.927    -0.130     6.726     4.056

 Mol. C6AA /au·bohr⁶  :       1135.769774
 Mol. C8AA /au·bohr⁸  :      23733.142198
 Mol. α(0) /au        :         52.960906


Wiberg/Mayer (AO) data.
largest (>0.10) Wiberg bond orders for each atom
          total WBO             WBO to atom ...
     1  N   3.390        B    2 1.456    H    9 0.962    H    8 0.953
     2  B   3.399        N    1 1.456    H    7 0.968    H    6 0.968
     3  N   3.395        B    4 1.471    H   10 0.962    H    5 0.951
     4  B   3.408        N    3 1.471    H   11 0.968    H   12 0.961
     5  H   0.972        N    3 0.951
     6  H   0.986        B    2 0.968
     7  H   0.986        B    2 0.968
     8  H   0.971        N    1 0.953
     9  H   0.975        N    1 0.962
    10  H   0.975        N    3 0.962
    11  H   0.986        B    4 0.968
    12  H   0.983        B    4 0.961

molecular dipole:
                 x           y           z       tot (Debye)
 q only:        0.039      -0.250       0.324
   full:        0.046      -0.318       0.453       1.412
molecular quadrupole (traceless):
                xx          xy          yy          xz          yz          zz
 q only:       -6.765      -3.312       4.945       1.770       0.323       1.820
  q+dip:       -8.613      -4.149       6.459       3.275       0.572       2.155
   full:       -9.596      -4.244       6.966       2.796       0.532       2.630


           -------------------------------------------------
          | TOTAL ENERGY              -12.430967881149 Eh   |
          | GRADIENT NORM               0.028203632356 Eh/α |
          | HOMO-LUMO GAP               5.912946352473 eV   |
           -------------------------------------------------
           ------------------------------------------------- 
          |                     P A T H                     |
          |            RMSD-Push/Pull Path Finder           |
           ------------------------------------------------- 
 reading reference structures from 1p.xyz ...
initial k push/pull              :    0.008   -0.020
Gaussian width (1/Bohr)          :    0.600
# random initial distor incr +/- :    0.005
# optlevel                       :   2
# of runs                        :   3
approx # structures opt on path  : 100
# of 'an'-optimization steps     :   3
 
  k_push/k_pull internally multiplied by Natoms!
  user info on effect of push/pull parameters
  ang. ed-prod G should be small, Govlp large
   width   k_push  k_pull  |Gbias| ang. ed-prod G  Govlp
   1.000   0.008  -0.020    0.001016   156.4     0.00000
   0.900   0.012  -0.030    0.002902   153.6     0.00000
   0.800   0.018  -0.045    0.008186   153.3     0.00000
   0.700   0.027  -0.068    0.022733   153.2     0.00001
   0.600   0.041  -0.101    0.061841   153.2     0.00004
   0.500   0.061  -0.152    0.163553   153.2     0.00027
   0.400   0.091  -0.228    0.415255   153.2     0.00172
   0.300   0.137  -0.342    0.988422   153.2     0.00976
   0.200   0.205  -0.513    2.091303   153.2     0.04371
input reactant/product RMSD (Bohr)  :    2.738

 
 optimizing inital path with Vbias ...
actual k push/pull :   0.008  -0.020

          ...................................................
          :                      SETUP                      :
          :.................................................:
          :   optimization level         verytight          :
          :   max. optcycles                   240          :
          :   ANC micro-cycles                  20          :
          :   degrees of freedom                30          :
          :.................................................:
          :   RF solver                   davidson          :
          :   input Hessian                  false          :
          :   write xtbopt.log                true          :
          :   linear?                        false          :
          :   energy convergence         0.1000000E-06 Eh   :
          :   grad. convergence          0.2000000E-03 Eh/α :
          :   maximium RF displ.         1.0000000          :
          :   Hlow (freq-cutoff)         0.1000000E-01      :
          :   Hmax (freq-cutoff)         5.0000000          :
          :   S6 in model hess.         20.0000000          :
          ...................................................

generating ANC from model Hessian ...
Using Lindh-Hessian (1995)
 Shifting diagonal of input Hessian by   9.951945057007012E-003
 Lowest  eigenvalues of input Hessian
   -0.000000   -0.000000    0.000000    0.000000    0.000000    0.000000
    0.010000    0.010213    0.010357    0.010390    0.010823    0.011553
    0.024934    0.025522    0.031154    0.031731    0.056772    0.057541
 Highest eigenvalues
    0.873755    0.881371    1.522991    1.538184    1.749429    1.763152
 

........................................................................
.............................. CYCLE    1 ..............................
........................................................................
   1    -12.5885222 -0.125885E+02  0.293E-02    5.91       0.0  T
   2    -12.5885223 -0.707287E-07  0.172E-02    5.91       1.7  T
   3    -12.5885222  0.618207E-07  0.358E-03    5.91       8.1  T
   4    -12.5885223 -0.920078E-07  0.982E-04    5.91      29.4  T
   5    -12.5885223 -0.175870E-09  0.133E-04    5.91     216.5  T
   6    -12.5885223 -0.149374E-10  0.337E-05    5.91     856.7  T
   7    -12.5885223 -0.841993E-12  0.132E-05    5.91    2183.8  T
     SCC iter.                  ...        0 min,  0.003 sec
     gradient                   ...        0 min,  0.004 sec
 * total energy  :   -12.3375332 Eh     change       -0.1233753E+02 Eh
   gradient norm :     0.0307375 Eh/α   predicted     0.0000000E+00 (-100.00%)
   displ. norm   :     0.1890482 α      lambda       -0.2772849E-02
   maximum displ.:     0.0976070 α      in ANC's #4, #5, #6, ...

........................................................................
.............................. CYCLE    2 ..............................
........................................................................
   1    -12.6014278 -0.126014E+02  0.145E-01    5.99       0.0  T
   2    -12.6014394 -0.115893E-04  0.742E-02    6.00       1.0  T
   3    -12.6014369  0.250292E-05  0.378E-02    6.00       1.0  T
   4    -12.6014437 -0.682485E-05  0.416E-03    6.00       6.9  T
   5    -12.6014437 -0.137062E-07  0.122E-03    6.00      23.7  T
   6    -12.6014437 -0.825809E-09  0.307E-04    6.00      94.0  T
   7    -12.6014437 -0.356820E-09  0.129E-04    6.00     223.6  T
   8    -12.6014437 -0.572946E-10  0.181E-05    6.00    1594.2  T
     SCC iter.                  ...        0 min,  0.003 sec
     gradient                   ...        0 min,  0.003 sec
 * total energy  :   -12.3396120 Eh     change       -0.2078808E-02 Eh
   gradient norm :     0.0105864 Eh/α   predicted    -0.1435973E-02 ( -30.92%)
   displ. norm   :     0.5751808 α      lambda       -0.3104390E-02
   maximum displ.:     0.3313363 α      in ANC's #4, #5, #6, ...

........................................................................
.............................. CYCLE    3 ..............................
........................................................................
   1    -12.6135508 -0.126136E+02  0.353E-01    6.04       0.0  T
   2    -12.6135741 -0.233027E-04  0.198E-01    6.02       1.0  T
   3    -12.6135631  0.109487E-04  0.499E-02    6.03       1.0  T
   4    -12.6135827 -0.195560E-04  0.748E-03    6.02       3.9  T
   5    -12.6135827 -0.333000E-07  0.182E-03    6.03      15.8  T
   6    -12.6135827 -0.414392E-08  0.584E-04    6.02      49.4  T
   7    -12.6135827 -0.197000E-08  0.198E-04    6.02     145.9  T
   8    -12.6135827 -0.640714E-10  0.352E-05    6.02     821.2  T
   9    -12.6135827 -0.451195E-12  0.138E-05    6.02    2095.6  T
     SCC iter.                  ...        0 min,  0.003 sec
     gradient                   ...        0 min,  0.003 sec
 * total energy  :   -12.3432656 Eh     change       -0.3653588E-02 Eh
   gradient norm :     0.0196603 Eh/α   predicted    -0.2065726E-02 ( -43.46%)
   displ. norm   :     0.6801724 α      lambda       -0.6447856E-02
   maximum displ.:     0.4090823 α      in ANC's #4, #5, #1, ...

........................................................................
.............................. CYCLE    4 ..............................
........................................................................
   1    -12.6113507 -0.126114E+02  0.450E-01    5.98       0.0  T
   2    -12.6113703 -0.195746E-04  0.259E-01    5.96       1.0  T
   3    -12.6113699  0.380131E-06  0.290E-02    5.97       1.0  T
   4    -12.6113784 -0.850970E-05  0.793E-03    5.96       3.6  T
   5    -12.6113784 -0.436707E-07  0.191E-03    5.96      15.1  T
   6    -12.6113784 -0.338403E-08  0.554E-04    5.96      52.1  T
   7    -12.6113784 -0.172176E-08  0.206E-04    5.96     139.9  T
   8    -12.6113784 -0.935714E-10  0.412E-05    5.96     700.7  T
   9    -12.6113784 -0.218492E-12  0.159E-05    5.96    1820.3  T
     SCC iter.                  ...        0 min,  0.003 sec
     gradient                   ...        0 min,  0.003 sec
 * total energy  :   -12.3520958 Eh     change       -0.8830178E-02 Eh
   gradient norm :     0.0281335 Eh/α   predicted    -0.4715414E-02 ( -46.60%)
   displ. norm   :     0.7982122 α      lambda       -0.1309988E-01
   maximum displ.:     0.4797552 α      in ANC's #4, #5, #1, ...

........................................................................
.............................. CYCLE    5 ..............................
........................................................................
   1    -12.6024344 -0.126024E+02  0.557E-01    5.89       0.0  T
   2    -12.6024601 -0.257337E-04  0.321E-01    5.87       1.0  T
   3    -12.6024645 -0.437392E-05  0.265E-02    5.87       1.1  T
   4    -12.6024711 -0.661713E-05  0.959E-03    5.86       3.0  T
   5    -12.6024712 -0.814350E-07  0.222E-03    5.87      13.0  T
   6    -12.6024712 -0.520680E-08  0.624E-04    5.87      46.3  T
   7    -12.6024712 -0.215660E-08  0.256E-04    5.87     112.6  T
   8    -12.6024712 -0.165883E-09  0.499E-05    5.87     578.7  T
     SCC iter.                  ...        0 min,  0.003 sec
     gradient                   ...        0 min,  0.004 sec
 * total energy  :   -12.3678451 Eh     change       -0.1574933E-01 Eh
   gradient norm :     0.0361861 Eh/α   predicted    -0.1072319E-01 ( -31.91%)
   displ. norm   :     0.8508684 α      lambda       -0.1939123E-01
   maximum displ.:     0.4966895 α      in ANC's #4, #5, #2, ...

........................................................................
.............................. CYCLE    6 ..............................
........................................................................
   1    -12.5894576 -0.125895E+02  0.606E-01    5.78       0.0  T
   2    -12.5894872 -0.296020E-04  0.350E-01    5.77       1.0  T
   3    -12.5894935 -0.630142E-05  0.259E-02    5.78       1.1  T
   4    -12.5894994 -0.586092E-05  0.117E-02    5.77       2.5  T
   5    -12.5894997 -0.282267E-06  0.298E-03    5.77       9.7  T
   6    -12.5894997 -0.916083E-08  0.591E-04    5.77      48.8  T
   7    -12.5894997 -0.192550E-09  0.231E-04    5.77     125.0  T
   8    -12.5894997 -0.336092E-09  0.602E-05    5.77     479.1  T
     SCC iter.                  ...        0 min,  0.003 sec
     gradient                   ...        0 min,  0.011 sec
 * total energy  :   -12.3891193 Eh     change       -0.2127416E-01 Eh
   gradient norm :     0.0461424 Eh/α   predicted    -0.1671504E-01 ( -21.43%)
   displ. norm   :     0.8491193 α      lambda       -0.2358553E-01
   maximum displ.:     0.4562442 α      in ANC's #4, #5, #2, ...

........................................................................
.............................. CYCLE    7 ..............................
........................................................................
   1    -12.5767560 -0.125768E+02  0.576E-01    5.67       0.0  T
   2    -12.5767844 -0.283196E-04  0.333E-01    5.67       1.0  T
   3    -12.5767849 -0.576353E-06  0.333E-02    5.68       1.0  T
   4    -12.5767961 -0.112030E-04  0.110E-02    5.67       2.6  T
   5    -12.5767962 -0.773647E-07  0.283E-03    5.67      10.2  T
   6    -12.5767962 -0.186890E-08  0.500E-04    5.67      57.8  T
   7    -12.5767962 -0.250242E-09  0.256E-04    5.67     112.5  T
   8    -12.5767962 -0.315254E-09  0.631E-05    5.67     457.2  T
     SCC iter.                  ...        0 min,  0.008 sec
     gradient                   ...        0 min,  0.004 sec
 * total energy  :   -12.4134832 Eh     change       -0.2436393E-01 Eh
   gradient norm :     0.0530483 Eh/α   predicted    -0.2029542E-01 ( -16.70%)
   displ. norm   :     0.8229976 α      lambda       -0.2525558E-01
   maximum displ.:     0.4266244 α      in ANC's #5, #4, #2, ...

........................................................................
.............................. CYCLE    8 ..............................
........................................................................
   1    -12.5654835 -0.125655E+02  0.531E-01    5.39       0.0  T
   2    -12.5655408 -0.572736E-04  0.308E-01    5.39       1.0  T
   3    -12.5655043  0.365634E-04  0.768E-02    5.41       1.0  T
   4    -12.5655597 -0.554512E-04  0.149E-02    5.40       1.9  T
   5    -12.5655600 -0.348155E-06  0.462E-03    5.40       6.2  T
   6    -12.5655600  0.395220E-08  0.169E-03    5.40      17.0  T
   7    -12.5655601 -0.234071E-07  0.581E-04    5.40      49.7  T
   8    -12.5655601 -0.272667E-09  0.650E-05    5.40     444.1  T
   9    -12.5655601 -0.109068E-11  0.261E-05    5.40    1107.1  T
     SCC iter.                  ...        0 min,  0.003 sec
     gradient                   ...        0 min,  0.008 sec
 * total energy  :   -12.4381976 Eh     change       -0.2471436E-01 Eh
   gradient norm :     0.0572369 Eh/α   predicted    -0.2118097E-01 ( -14.30%)
   displ. norm   :     0.8903096 α      lambda       -0.3394266E-01
   maximum displ.:     0.4420229 α      in ANC's #5, #2, #4, ...

........................................................................
.............................. CYCLE    9 ..............................
........................................................................
   1    -12.5750590 -0.125751E+02  0.680E-01    5.13       0.0  T
   2    -12.5754120 -0.353076E-03  0.383E-01    5.06       1.0  T
   3    -12.5753595  0.525819E-04  0.191E-01    5.12       1.0  T
   4    -12.5755418 -0.182311E-03  0.203E-02    5.08       1.4  T
   5    -12.5755424 -0.651619E-06  0.762E-03    5.09       3.8  T
   6    -12.5755424 -0.159541E-07  0.327E-03    5.09       8.8  T
   7    -12.5755425 -0.704424E-07  0.803E-04    5.09      36.0  T
   8    -12.5755425 -0.945755E-09  0.107E-04    5.09     269.8  T
   9    -12.5755425 -0.479083E-11  0.448E-05    5.09     644.2  T
     SCC iter.                  ...        0 min,  0.003 sec
     gradient                   ...        0 min,  0.004 sec
 * total energy  :   -12.4674167 Eh     change       -0.2921917E-01 Eh
   gradient norm :     0.0479118 Eh/α   predicted    -0.3042366E-01 (   4.12%)
   displ. norm   :     0.9157224 α      lambda       -0.3116451E-01
   maximum displ.:     0.4890019 α      in ANC's #4, #5, #2, ...

........................................................................
.............................. CYCLE   10 ..............................
........................................................................
   1    -12.5608819 -0.125609E+02  0.891E-01    4.96       0.0  T
   2    -12.5609878 -0.105827E-03  0.513E-01    4.94       1.0  T
   3    -12.5609870  0.783750E-06  0.624E-02    4.96       1.0  T
   4    -12.5610230 -0.360269E-04  0.231E-02    4.95       1.3  T
   5    -12.5610241 -0.106804E-05  0.782E-03    4.95       3.7  T
   6    -12.5610241 -0.376232E-08  0.183E-03    4.95      15.8  T
   7    -12.5610241 -0.175008E-07  0.759E-04    4.95      38.1  T
   8    -12.5610241 -0.111257E-08  0.113E-04    4.95     256.3  T
   9    -12.5610241 -0.489209E-11  0.436E-05    4.95     662.8  T
     SCC iter.                  ...        0 min,  0.003 sec
     gradient                   ...        0 min,  0.004 sec
 * total energy  :   -12.4936304 Eh     change       -0.2621373E-01 Eh
   gradient norm :     0.0553245 Eh/α   predicted    -0.2864877E-01 (   9.29%)
   displ. norm   :     0.8531903 α      lambda       -0.2899483E-01
   maximum displ.:     0.4352702 α      in ANC's #5, #4, #2, ...

........................................................................
.............................. CYCLE   11 ..............................
........................................................................
   1    -12.5559142 -0.125559E+02  0.975E-01    4.97       0.0  T
   2    -12.5564500 -0.535771E-03  0.565E-01    4.91       1.0  T
   3    -12.5562670  0.183020E-03  0.225E-01    4.99       1.0  T
   4    -12.5566045 -0.337544E-03  0.416E-02    4.94       1.0  T
   5    -12.5566115 -0.692285E-05  0.151E-02    4.94       1.9  T
   6    -12.5566115 -0.864610E-07  0.416E-03    4.94       6.9  T
   7    -12.5566117 -0.147053E-06  0.119E-03    4.94      24.3  T
   8    -12.5566117 -0.766603E-09  0.199E-04    4.94     144.8  T
   9    -12.5566117 -0.516991E-10  0.573E-05    4.94     504.1  T
     SCC iter.                  ...        0 min,  0.003 sec
     gradient                   ...        0 min,  0.004 sec
 * total energy  :   -12.5132039 Eh     change       -0.1957345E-01 Eh
   gradient norm :     0.0745681 Eh/α   predicted    -0.2505052E-01 (  27.98%)
   displ. norm   :     0.7514260 α      lambda       -0.2819994E-01
   maximum displ.:     0.3525089 α      in ANC's #5, #22, #19, ...

........................................................................
.............................. CYCLE   12 ..............................
........................................................................
   1    -12.5744502 -0.125745E+02  0.714E-01    5.01       0.0  T
   2    -12.5746683 -0.218058E-03  0.403E-01    4.94       1.0  T
   3    -12.5746005  0.678203E-04  0.154E-01    4.99       1.0  T
   4    -12.5747324 -0.131927E-03  0.449E-02    4.95       1.0  T
   5    -12.5747356 -0.319072E-05  0.121E-02    4.95       2.4  T
   6    -12.5747362 -0.618571E-06  0.413E-03    4.95       7.0  T
   7    -12.5747363 -0.632623E-07  0.163E-03    4.95      17.7  T
   8    -12.5747363 -0.336622E-08  0.256E-04    4.95     112.7  T
   9    -12.5747363 -0.826983E-10  0.787E-05    4.95     366.7  T
     SCC iter.                  ...        0 min,  0.003 sec
     gradient                   ...        0 min,  0.004 sec
 * total energy  :   -12.5266948 Eh     change       -0.1349091E-01 Eh
   gradient norm :     0.0779346 Eh/α   predicted    -0.2206138E-01 (  63.53%)
   displ. norm   :     0.6605652 α      lambda       -0.2383424E-01
   maximum displ.:     0.3752787 α      in ANC's #5, #4, #2, ...

........................................................................
.............................. CYCLE   13 ..............................
........................................................................
   1    -12.5392437 -0.125392E+02  0.985E-01    5.21       0.0  T
   2    -12.5400329 -0.789243E-03  0.532E-01    5.16       1.0  T
   3    -12.5400828 -0.498509E-04  0.147E-01    5.15       1.0  T
   4    -12.5401197 -0.369391E-04  0.612E-02    5.16       1.0  T
   5    -12.5401310 -0.113330E-04  0.258E-02    5.15       1.1  T
   6    -12.5401322 -0.115163E-05  0.655E-03    5.16       4.4  T
   7    -12.5401326 -0.366244E-06  0.249E-03    5.15      11.6  T
   8    -12.5401326 -0.946033E-08  0.516E-04    5.15      56.0  T
   9    -12.5401326 -0.488427E-09  0.113E-04    5.15     255.2  T
  10    -12.5401326 -0.988720E-11  0.189E-05    5.15    1527.9  T
     SCC iter.                  ...        0 min,  0.004 sec
     gradient                   ...        0 min,  0.004 sec
 * total energy  :   -12.5273741 Eh     change       -0.6793200E-03 Eh
   gradient norm :     0.1208793 Eh/α   predicted    -0.1711710E-01 (2419.74%)
   displ. norm   :     0.4376286 α      lambda       -0.2942279E-01
   maximum displ.:     0.1743590 α      in ANC's #2, #4, #1, ...

........................................................................
.............................. CYCLE   14 ..............................
........................................................................
   1    -12.5370205 -0.125370E+02  0.614E-01    5.17       0.0  T
   2    -12.5377818 -0.761211E-03  0.353E-01    5.12       1.0  T
   3    -12.5378310 -0.492028E-04  0.166E-01    5.13       1.0  T
   4    -12.5378339 -0.293701E-05  0.615E-02    5.11       1.0  T
   5    -12.5378462 -0.122881E-04  0.246E-02    5.12       1.2  T
   6    -12.5378479 -0.171731E-05  0.389E-03    5.12       7.4  T
   7    -12.5378480 -0.141650E-06  0.137E-03    5.12      21.1  T
   8    -12.5378480 -0.270540E-08  0.383E-04    5.12      75.4  T
   9    -12.5378480 -0.137463E-09  0.853E-05    5.12     338.5  T
  10    -12.5378480 -0.702371E-11  0.131E-05    5.12    2202.7  T
     SCC iter.                  ...        0 min,  0.004 sec
     gradient                   ...        0 min,  0.004 sec
 * total energy  :   -12.5344088 Eh     change       -0.7034713E-02 Eh
   gradient norm :     0.0802615 Eh/α   predicted    -0.1752891E-01 ( 149.18%)
   displ. norm   :     0.4555428 α      lambda       -0.2079145E-01
   maximum displ.:     0.2636776 α      in ANC's #6, #13, #1, ...

........................................................................
.............................. CYCLE   15 ..............................
........................................................................
   1    -12.5609187 -0.125609E+02  0.102E+00    5.08       0.0  T
   2    -12.5627532 -0.183452E-02  0.550E-01    4.86       1.0  T
   3    -12.5628121 -0.589154E-04  0.275E-01    4.99       1.0  T
   4    -12.5629950 -0.182882E-03  0.828E-02    4.88       1.0  T
   5    -12.5630474 -0.523867E-04  0.254E-02    4.92       1.1  T
   6    -12.5630490 -0.165762E-05  0.124E-02    4.91       2.3  T
   7    -12.5630494 -0.334522E-06  0.325E-03    4.91       8.9  T
   8    -12.5630494 -0.978936E-08  0.627E-04    4.91      46.0  T
   9    -12.5630494 -0.293500E-09  0.867E-05    4.91     333.0  T
  10    -12.5630494 -0.124274E-10  0.160E-05    4.91    1808.2  T
     SCC iter.                  ...        0 min,  0.003 sec
     gradient                   ...        0 min,  0.004 sec
 * total energy  :   -12.5307001 Eh     change        0.3708725E-02 Eh
   gradient norm :     0.1449561 Eh/α   predicted    -0.1255304E-01 (-438.47%)
   displ. norm   :     0.3872360 α      lambda       -0.2839568E-01
   maximum displ.:     0.1584446 α      in ANC's #10, #9, #5, ...

........................................................................
.............................. CYCLE   16 ..............................
........................................................................
   1    -12.5556474 -0.125556E+02  0.878E-01    4.81       0.0  T
   2    -12.5561774 -0.530006E-03  0.492E-01    4.91       1.0  T
   3    -12.5562239 -0.465388E-04  0.138E-01    4.86       1.0  T
   4    -12.5562425 -0.185682E-04  0.498E-02    4.89       1.0  T
   5    -12.5562492 -0.668298E-05  0.178E-02    4.87       1.6  T
   6    -12.5562495 -0.332148E-06  0.311E-03    4.88       9.3  T
   7    -12.5562495 -0.384856E-07  0.171E-03    4.88      16.9  T
   8    -12.5562495 -0.959696E-08  0.373E-04    4.88      77.3  T
   9    -12.5562495 -0.300364E-09  0.112E-04    4.88     258.0  T
  10    -12.5562495 -0.662936E-11  0.130E-05    4.88    2213.1  T
     SCC iter.                  ...        0 min,  0.004 sec
     gradient                   ...        0 min,  0.004 sec
 * total energy  :   -12.5376020 Eh     change       -0.6901906E-02 Eh
   gradient norm :     0.1174334 Eh/α   predicted    -0.1632682E-01 ( 136.56%)
   displ. norm   :     0.4329017 α      lambda       -0.2400544E-01
   maximum displ.:     0.2130008 α      in ANC's #5, #9, #13, ...

........................................................................
.............................. CYCLE   17 ..............................
........................................................................
   1    -12.5244360 -0.125244E+02  0.850E-01    4.78       0.0  T
   2    -12.5252563 -0.820242E-03  0.443E-01    4.92       1.0  T
   3    -12.5253133 -0.570757E-04  0.143E-01    4.90       1.0  T
   4    -12.5253259 -0.125647E-04  0.496E-02    4.91       1.0  T
   5    -12.5253318 -0.591712E-05  0.247E-02    4.91       1.2  T
   6    -12.5253344 -0.256820E-05  0.640E-03    4.91       4.5  T
   7    -12.5253345 -0.156788E-06  0.249E-03    4.91      11.6  T
   8    -12.5253346 -0.261195E-07  0.846E-04    4.91      34.1  T
   9    -12.5253346 -0.400519E-09  0.132E-04    4.91     219.3  T
  10    -12.5253346 -0.102389E-10  0.197E-05    4.91    1466.4  T
     SCC iter.                  ...        0 min,  0.004 sec
     gradient                   ...        0 min,  0.004 sec
 * total energy  :   -12.5372865 Eh     change        0.3154922E-03 Eh
   gradient norm :     0.1003589 Eh/α   predicted    -0.1425206E-01 (*******%)
   displ. norm   :     0.3742991 α      lambda       -0.1959705E-01
   maximum displ.:     0.1502421 α      in ANC's #4, #13, #2, ...

........................................................................
.............................. CYCLE   18 ..............................
........................................................................
   1    -12.5176551 -0.125177E+02  0.866E-01    5.09       0.0  T
   2    -12.5186576 -0.100249E-02  0.457E-01    4.95       1.0  T
   3    -12.5186257  0.318976E-04  0.207E-01    4.92       1.0  T
   4    -12.5186619 -0.361849E-04  0.737E-02    4.94       1.0  T
   5    -12.5187368 -0.748766E-04  0.190E-02    4.93       1.5  T
   6    -12.5187371 -0.324788E-06  0.660E-03    4.93       4.4  T
   7    -12.5187371 -0.121511E-07  0.144E-03    4.93      20.1  T
   8    -12.5187371 -0.994409E-08  0.641E-04    4.93      45.1  T
   9    -12.5187371 -0.533440E-09  0.678E-05    4.93     425.8  T
  10    -12.5187371 -0.157918E-11  0.255E-05    4.93    1134.2  T
     SCC iter.                  ...        0 min,  0.004 sec
     gradient                   ...        0 min,  0.004 sec
 * total energy  :   -12.5425046 Eh     change       -0.5218046E-02 Eh
   gradient norm :     0.0767420 Eh/α   predicted    -0.1117129E-01 ( 114.09%)
   displ. norm   :     0.5908523 α      lambda       -0.2479959E-01
   maximum displ.:     0.2689545 α      in ANC's #6, #4, #12, ...

........................................................................
.............................. CYCLE   19 ..............................
........................................................................
   1    -12.5620829 -0.125621E+02  0.102E+00    5.08       0.0  T
   2    -12.5631410 -0.105804E-02  0.598E-01    4.72       1.0  T
   3    -12.5631147  0.262572E-04  0.205E-01    4.77       1.0  T
   4    -12.5632057 -0.909987E-04  0.877E-02    4.68       1.0  T
   5    -12.5632664 -0.606779E-04  0.264E-02    4.70       1.1  T
   6    -12.5632675 -0.116146E-05  0.113E-02    4.71       2.5  T
   7    -12.5632679 -0.404245E-06  0.255E-03    4.71      11.3  T
   8    -12.5632679 -0.658745E-08  0.566E-04    4.71      51.0  T
   9    -12.5632679 -0.222974E-09  0.954E-05    4.71     302.4  T
  10    -12.5632679 -0.356870E-11  0.226E-05    4.71    1275.4  T
     SCC iter.                  ...        0 min,  0.004 sec
     gradient                   ...        0 min,  0.004 sec
 * total energy  :   -12.5434945 Eh     change       -0.9899074E-03 Eh
   gradient norm :     0.1278174 Eh/α   predicted    -0.1672865E-01 (1589.92%)
   displ. norm   :     0.4260082 α      lambda       -0.2539357E-01
   maximum displ.:     0.2198888 α      in ANC's #5, #4, #8, ...

........................................................................
.............................. CYCLE   20 ..............................
........................................................................
   1    -12.5346873 -0.125347E+02  0.910E-01    4.84       0.0  T
   2    -12.5352211 -0.533818E-03  0.461E-01    5.01       1.0  T
   3    -12.5349638  0.257238E-03  0.298E-01    4.91       1.0  T
   4    -12.5353601 -0.396211E-03  0.619E-02    4.98       1.0  T
   5    -12.5353908 -0.307156E-04  0.216E-02    4.98       1.3  T
   6    -12.5353925 -0.174235E-05  0.862E-03    4.97       3.3  T
   7    -12.5353927 -0.198123E-06  0.181E-03    4.97      15.9  T
   8    -12.5353927 -0.499565E-08  0.737E-04    4.97      39.2  T
   9    -12.5353927 -0.332191E-09  0.117E-04    4.97     246.1  T
  10    -12.5353927 -0.301110E-10  0.147E-05    4.97    1957.3  T
     SCC iter.                  ...        0 min,  0.004 sec
     gradient                   ...        0 min,  0.004 sec
 * total energy  :   -12.5582437 Eh     change       -0.1474921E-01 Eh
   gradient norm :     0.0939885 Eh/α   predicted    -0.1500104E-01 (   1.71%)
   displ. norm   :     0.6122513 α      lambda       -0.4131055E-01
   maximum displ.:     0.2267083 α      in ANC's #8, #21, #13, ...
 * RMSD in coord.:     2.6056725 α      energy gain  -0.1255824E+02 Eh

generating ANC from model Hessian ...
Using Lindh-Hessian (1995)
 Shifting diagonal of input Hessian by   5.823539454891354E-003
 Lowest  eigenvalues of input Hessian
   -0.000000   -0.000000   -0.000000   -0.000000    0.000000    0.000000
    0.010000    0.013327    0.016197    0.021907    0.022694    0.024367
    0.028929    0.038540    0.041653    0.048309    0.058842    0.069953
 Highest eigenvalues
    0.815276    0.919756    1.206270    1.337458    1.456555    1.722190
 

........................................................................
.............................. CYCLE   21 ..............................
........................................................................
   1    -12.5025851 -0.125026E+02  0.215E+00    5.39       0.0  T
   2    -12.5067704 -0.418530E-02  0.969E-01    5.79       1.0  T
   3    -12.5059118  0.858562E-03  0.864E-01    5.63       1.0  T
   4    -12.5088409 -0.292906E-02  0.130E-01    5.72       1.0  T
   5    -12.5089134 -0.724976E-04  0.465E-02    5.74       1.0  T
   6    -12.5089231 -0.967157E-05  0.201E-02    5.72       1.4  T
   7    -12.5089235 -0.407756E-06  0.338E-03    5.72       8.6  T
   8    -12.5089235 -0.266147E-07  0.123E-03    5.72      23.4  T
   9    -12.5089235 -0.749097E-09  0.180E-04    5.72     160.6  T
  10    -12.5089235 -0.278941E-10  0.252E-05    5.72    1145.9  T
  11    -12.5089235 -0.148148E-11  0.819E-06    5.72    3525.9  T
     SCC iter.                  ...        0 min,  0.004 sec
     gradient                   ...        0 min,  0.004 sec
 * total energy  :   -12.5662733 Eh     change       -0.8029627E-02 Eh
   gradient norm :     0.1434332 Eh/α   predicted     0.0000000E+00 (-100.00%)
   displ. norm   :     0.4999196 α      lambda       -0.4491358E-01
   maximum displ.:     0.2994502 α      in ANC's #7, #19, #14, ...

........................................................................
.............................. CYCLE   22 ..............................
........................................................................
   1    -12.5362784 -0.125363E+02  0.119E+00    5.86       0.0  T
   2    -12.5372661 -0.987743E-03  0.483E-01    5.85       1.0  T
   3    -12.5372052  0.609001E-04  0.447E-01    5.91       1.0  T
   4    -12.5381804 -0.975153E-03  0.766E-02    5.87       1.0  T
   5    -12.5381933 -0.128768E-04  0.276E-02    5.88       1.0  T
   6    -12.5381952 -0.198294E-05  0.795E-03    5.88       3.6  T
   7    -12.5381954 -0.122732E-06  0.421E-03    5.88       6.9  T
   8    -12.5381954 -0.389726E-07  0.356E-04    5.88      81.1  T
   9    -12.5381954 -0.444622E-10  0.813E-05    5.88     355.0  T
  10    -12.5381954 -0.402700E-11  0.168E-05    5.88    1722.0  T
     SCC iter.                  ...        0 min,  0.004 sec
     gradient                   ...        0 min,  0.004 sec
 * total energy  :   -12.6008884 Eh     change       -0.3461513E-01 Eh
   gradient norm :     0.0801418 Eh/α   predicted    -0.2806919E-01 ( -18.91%)
   displ. norm   :     0.5932216 α      lambda       -0.3931699E-01
   maximum displ.:     0.3082266 α      in ANC's #19, #14, #22, ...

........................................................................
.............................. CYCLE   23 ..............................
........................................................................
   1    -12.5671671 -0.125672E+02  0.185E+00    5.69       0.0  T
   2    -12.5709084 -0.374124E-02  0.804E-01    5.29       1.0  T
   3    -12.5708999  0.843157E-05  0.604E-01    5.58       1.0  T
   4    -12.5724768 -0.157692E-02  0.132E-01    5.35       1.0  T
   5    -12.5725433 -0.664887E-04  0.578E-02    5.40       1.0  T
   6    -12.5725504 -0.702681E-05  0.133E-02    5.40       2.2  T
   7    -12.5725508 -0.417774E-06  0.528E-03    5.40       5.5  T
   8    -12.5725508 -0.450251E-07  0.101E-03    5.40      28.4  T
   9    -12.5725508 -0.199181E-08  0.230E-04    5.40     125.3  T
  10    -12.5725508 -0.622009E-10  0.394E-05    5.40     732.2  T
     SCC iter.                  ...        0 min,  0.004 sec
     gradient                   ...        0 min,  0.004 sec
 * total energy  :   -12.6264551 Eh     change       -0.2556665E-01 Eh
   gradient norm :     0.1068463 Eh/α   predicted    -0.2657655E-01 (   3.95%)
   displ. norm   :     0.5354863 α      lambda       -0.2517298E-01
   maximum displ.:     0.2314464 α      in ANC's #14, #7, #2, ...

........................................................................
.............................. CYCLE   24 ..............................
........................................................................
   1    -12.5692226 -0.125692E+02  0.111E+00    5.25       0.0  T
   2    -12.5705690 -0.134646E-02  0.590E-01    4.93       1.0  T
   3    -12.5705750 -0.602063E-05  0.273E-01    4.99       1.0  T
   4    -12.5707235 -0.148467E-03  0.713E-02    4.88       1.0  T
   5    -12.5707441 -0.205647E-04  0.329E-02    4.93       1.0  T
   6    -12.5707501 -0.606852E-05  0.112E-02    4.92       2.6  T
   7    -12.5707506 -0.420717E-06  0.229E-03    4.92      12.6  T
   8    -12.5707506 -0.868060E-08  0.531E-04    4.92      54.4  T
   9    -12.5707506 -0.400238E-09  0.110E-04    4.92     261.4  T
  10    -12.5707506 -0.468248E-11  0.222E-05    4.92    1298.8  T
     SCC iter.                  ...        0 min,  0.003 sec
     gradient                   ...        0 min,  0.004 sec
 * total energy  :   -12.6438620 Eh     change       -0.1740695E-01 Eh
   gradient norm :     0.0975187 Eh/α   predicted    -0.1619558E-01 (  -6.96%)
   displ. norm   :     0.5909129 α      lambda       -0.3475692E-01
   maximum displ.:     0.2596825 α      in ANC's #14, #17, #20, ...

........................................................................
.............................. CYCLE   25 ..............................
........................................................................
   1    -12.5681098 -0.125681E+02  0.786E-01    4.97       0.0  T
   2    -12.5687545 -0.644783E-03  0.472E-01    4.91       1.0  T
   3    -12.5687415  0.130142E-04  0.184E-01    4.79       1.0  T
   4    -12.5688472 -0.105659E-03  0.825E-02    4.85       1.0  T
   5    -12.5688764 -0.291752E-04  0.249E-02    4.82       1.2  T
   6    -12.5688779 -0.155991E-05  0.776E-03    4.83       3.7  T
   7    -12.5688782 -0.243446E-06  0.217E-03    4.83      13.3  T
   8    -12.5688782 -0.298846E-08  0.597E-04    4.83      48.4  T
   9    -12.5688782 -0.667411E-09  0.970E-05    4.83     297.7  T
  10    -12.5688782 -0.730260E-11  0.166E-05    4.83    1741.7  T
     SCC iter.                  ...        0 min,  0.004 sec
     gradient                   ...        0 min,  0.004 sec
 * total energy  :   -12.6624723 Eh     change       -0.1861023E-01 Eh
   gradient norm :     0.0834276 Eh/α   predicted    -0.2344665E-01 (  25.99%)
   displ. norm   :     0.5204912 α      lambda       -0.1968350E-01
   maximum displ.:     0.2856408 α      in ANC's #4, #12, #20, ...

........................................................................
.............................. CYCLE   26 ..............................
........................................................................
   1    -12.5892343 -0.125892E+02  0.597E-01    4.73       0.0  T
   2    -12.5896651 -0.430791E-03  0.335E-01    4.72       1.0  T
   3    -12.5896664 -0.131315E-05  0.147E-01    4.64       1.0  T
   4    -12.5897432 -0.768169E-04  0.441E-02    4.68       1.0  T
   5    -12.5897547 -0.115459E-04  0.175E-02    4.67       1.6  T
   6    -12.5897547 -0.672737E-08  0.356E-03    4.67       8.1  T
   7    -12.5897548 -0.846041E-07  0.744E-04    4.67      38.8  T
   8    -12.5897548 -0.439556E-09  0.159E-04    4.67     181.9  T
   9    -12.5897548 -0.385167E-10  0.364E-05    4.67     792.6  T
     SCC iter.                  ...        0 min,  0.003 sec
     gradient                   ...        0 min,  0.004 sec
 * total energy  :   -12.6741871 Eh     change       -0.1171485E-01 Eh
   gradient norm :     0.0445656 Eh/α   predicted    -0.1250800E-01 (   6.77%)
   displ. norm   :     0.4646616 α      lambda       -0.8372893E-02
   maximum displ.:     0.2573330 α      in ANC's #5, #1, #12, ...

........................................................................
.............................. CYCLE   27 ..............................
........................................................................
   1    -12.5923856 -0.125924E+02  0.504E-01    4.39       0.0  T
   2    -12.5925109 -0.125306E-03  0.289E-01    4.38       1.0  T
   3    -12.5925158 -0.489475E-05  0.632E-02    4.35       1.0  T
   4    -12.5925254 -0.960263E-05  0.276E-02    4.37       1.0  T
   5    -12.5925294 -0.407574E-05  0.114E-02    4.36       2.5  T
   6    -12.5925295 -0.909146E-07  0.215E-03    4.36      13.4  T
   7    -12.5925295 -0.212456E-07  0.787E-04    4.36      36.7  T
   8    -12.5925295 -0.113644E-08  0.208E-04    4.36     138.8  T
   9    -12.5925295 -0.472582E-10  0.419E-05    4.36     688.8  T
     SCC iter.                  ...        0 min,  0.003 sec
     gradient                   ...        0 min,  0.004 sec
 * total energy  :   -12.6747991 Eh     change       -0.6119287E-03 Eh
   gradient norm :     0.0503396 Eh/α   predicted    -0.5090346E-02 ( 731.85%)
   displ. norm   :     0.2634719 α      lambda       -0.6346818E-02
   maximum displ.:     0.1612289 α      in ANC's #2, #5, #4, ...

........................................................................
.............................. CYCLE   28 ..............................
........................................................................
   1    -12.5941665 -0.125942E+02  0.303E-01    4.55       0.0  T
   2    -12.5942109 -0.443355E-04  0.174E-01    4.52       1.0  T
   3    -12.5942053  0.552049E-05  0.552E-02    4.49       1.0  T
   4    -12.5942152 -0.987797E-05  0.157E-02    4.51       1.8  T
   5    -12.5942168 -0.158640E-05  0.627E-03    4.50       4.6  T
   6    -12.5942169 -0.591377E-07  0.182E-03    4.50      15.8  T
   7    -12.5942169 -0.951474E-08  0.440E-04    4.50      65.7  T
   8    -12.5942169 -0.386782E-09  0.159E-04    4.50     181.4  T
   9    -12.5942169 -0.761879E-11  0.155E-05    4.50    1860.0  T
     SCC iter.                  ...        0 min,  0.003 sec
     gradient                   ...        0 min,  0.004 sec
 * total energy  :   -12.6776261 Eh     change       -0.2827064E-02 Eh
   gradient norm :     0.0188211 Eh/α   predicted    -0.3393702E-02 (  20.04%)
   displ. norm   :     0.1895510 α      lambda       -0.1547466E-02
   maximum displ.:     0.1101921 α      in ANC's #1, #2, #12, ...

........................................................................
.............................. CYCLE   29 ..............................
........................................................................
   1    -12.5968093 -0.125968E+02  0.184E-01    4.56       0.0  T
   2    -12.5968322 -0.228939E-04  0.107E-01    4.59       1.0  T
   3    -12.5968318  0.341752E-06  0.329E-02    4.60       1.0  T
   4    -12.5968348 -0.293775E-05  0.110E-02    4.59       2.6  T
   5    -12.5968354 -0.609838E-06  0.432E-03    4.60       6.7  T
   6    -12.5968354 -0.333760E-07  0.110E-03    4.60      26.1  T
   7    -12.5968354 -0.539050E-08  0.261E-04    4.60     110.8  T
   8    -12.5968354 -0.369962E-10  0.951E-05    4.60     303.6  T
   9    -12.5968354 -0.992095E-11  0.120E-05    4.60    2400.3  T
     SCC iter.                  ...        0 min,  0.003 sec
     gradient                   ...        0 min,  0.004 sec
 * total energy  :   -12.6780461 Eh     change       -0.4200272E-03 Eh
   gradient norm :     0.0175563 Eh/α   predicted    -0.8015325E-03 (  90.83%)
   displ. norm   :     0.0923059 α      lambda       -0.6774061E-03
   maximum displ.:     0.0447741 α      in ANC's #1, #6, #3, ...

........................................................................
.............................. CYCLE   30 ..............................
........................................................................
   1    -12.5934944 -0.125935E+02  0.920E-02    4.57       0.0  T
   2    -12.5934974 -0.297546E-05  0.529E-02    4.57       1.0  T
   3    -12.5934977 -0.242106E-06  0.103E-02    4.57       2.8  T
   4    -12.5934980 -0.344613E-06  0.524E-03    4.58       5.5  T
   5    -12.5934981 -0.993022E-07  0.194E-03    4.57      14.9  T
   6    -12.5934981 -0.590538E-08  0.373E-04    4.57      77.4  T
   7    -12.5934981 -0.210715E-09  0.169E-04    4.57     170.7  T
   8    -12.5934981 -0.331557E-10  0.506E-05    4.57     570.8  T
   9    -12.5934981 -0.717471E-11  0.946E-06    4.57    3050.6  T
     SCC iter.                  ...        0 min,  0.003 sec
     gradient                   ...        0 min,  0.004 sec
 * total energy  :   -12.6783052 Eh     change       -0.2590716E-03 Eh
   gradient norm :     0.0075299 Eh/α   predicted    -0.3415892E-03 (  31.85%)
   displ. norm   :     0.1494726 α      lambda       -0.4611854E-03
   maximum displ.:     0.0973495 α      in ANC's #3, #2, #6, ...

........................................................................
.............................. CYCLE   31 ..............................
........................................................................
   1    -12.5931756 -0.125932E+02  0.165E-01    4.58       0.0  T
   2    -12.5931811 -0.546380E-05  0.925E-02    4.58       1.0  T
   3    -12.5931829 -0.180175E-05  0.926E-03    4.58       3.1  T
   4    -12.5931831 -0.217151E-06  0.474E-03    4.58       6.1  T
   5    -12.5931831 -0.159487E-07  0.133E-03    4.58      21.8  T
   6    -12.5931831 -0.116873E-07  0.413E-04    4.58      69.9  T
   7    -12.5931831 -0.818307E-09  0.179E-04    4.58     160.8  T
   8    -12.5931831 -0.205151E-10  0.349E-05    4.58     826.9  T
   9    -12.5931831 -0.201261E-11  0.115E-05    4.58    2515.3  T
     SCC iter.                  ...        0 min,  0.003 sec
     gradient                   ...        0 min,  0.004 sec
 * total energy  :   -12.6781915 Eh     change        0.1137151E-03 Eh
   gradient norm :     0.0137021 Eh/α   predicted    -0.2357448E-03 (-307.31%)
   displ. norm   :     0.0809230 α      lambda       -0.5416026E-03
   maximum displ.:     0.0486901 α      in ANC's #2, #6, #3, ...

........................................................................
.............................. CYCLE   32 ..............................
........................................................................
   1    -12.5956055 -0.125956E+02  0.862E-02    4.58       0.0  T
   2    -12.5956099 -0.446269E-05  0.472E-02    4.58       1.0  T
   3    -12.5956103 -0.346150E-06  0.136E-02    4.58       2.1  T
   4    -12.5956106 -0.280428E-06  0.548E-03    4.58       5.3  T
   5    -12.5956106 -0.703673E-07  0.252E-03    4.58      11.5  T
   6    -12.5956106 -0.219964E-07  0.376E-04    4.58      76.7  T
   7    -12.5956106 -0.718529E-09  0.177E-04    4.58     162.8  T
   8    -12.5956106 -0.268621E-10  0.250E-05    4.58    1156.0  T
   9    -12.5956106 -0.976996E-12  0.777E-06    4.58    3717.5  T
     SCC iter.                  ...        0 min,  0.003 sec
     gradient                   ...        0 min,  0.004 sec
 * total energy  :   -12.6783917 Eh     change       -0.2001522E-03 Eh
   gradient norm :     0.0056158 Eh/α   predicted    -0.2725752E-03 (  36.18%)
   displ. norm   :     0.0824184 α      lambda       -0.2276661E-03
   maximum displ.:     0.0450162 α      in ANC's #8, #2, #1, ...

........................................................................
.............................. CYCLE   33 ..............................
........................................................................
   1    -12.5931200 -0.125931E+02  0.971E-02    4.62       0.0  T
   2    -12.5931222 -0.228099E-05  0.559E-02    4.62       1.0  T
   3    -12.5931228 -0.527327E-06  0.940E-03    4.61       3.1  T
   4    -12.5931228 -0.297135E-07  0.449E-03    4.62       6.4  T
   5    -12.5931229 -0.108403E-06  0.128E-03    4.61      22.5  T
   6    -12.5931229 -0.624606E-08  0.214E-04    4.61     134.9  T
   7    -12.5931229 -0.139035E-10  0.864E-05    4.61     334.2  T
   8    -12.5931229 -0.125713E-10  0.160E-05    4.61    1799.5  T
     SCC iter.                  ...        0 min,  0.003 sec
     gradient                   ...        0 min,  0.004 sec
 * total energy  :   -12.6783148 Eh     change        0.7688835E-04 Eh
   gradient norm :     0.0092186 Eh/α   predicted    -0.1146056E-03 (-249.05%)
   displ. norm   :     0.0568309 α      lambda       -0.2760596E-03
   maximum displ.:     0.0327138 α      in ANC's #2, #4, #8, ...

........................................................................
.............................. CYCLE   34 ..............................
........................................................................
   1    -12.5944347 -0.125944E+02  0.706E-02    4.59       0.0  T
   2    -12.5944365 -0.186221E-05  0.401E-02    4.59       1.0  T
   3    -12.5944368 -0.228637E-06  0.786E-03    4.59       3.7  T
   4    -12.5944369 -0.103360E-06  0.344E-03    4.59       8.4  T
   5    -12.5944369 -0.273931E-07  0.137E-03    4.59      21.0  T
   6    -12.5944369 -0.879267E-08  0.302E-04    4.59      95.5  T
   7    -12.5944369 -0.523087E-09  0.978E-05    4.59     295.2  T
   8    -12.5944369 -0.132463E-10  0.368E-05    4.59     785.4  T
     SCC iter.                  ...        0 min,  0.003 sec
     gradient                   ...        0 min,  0.004 sec
 * total energy  :   -12.6784340 Eh     change       -0.1191990E-03 Eh
   gradient norm :     0.0027546 Eh/α   predicted    -0.1384750E-03 (  16.17%)
   displ. norm   :     0.0491175 α      lambda       -0.5561393E-04
   maximum displ.:     0.0383675 α      in ANC's #1, #4, #5, ...

........................................................................
.............................. CYCLE   35 ..............................
........................................................................
   1    -12.5943706 -0.125944E+02  0.441E-02    4.60       0.0  T
   2    -12.5943710 -0.374108E-06  0.264E-02    4.59       1.1  T
   3    -12.5943710 -0.346022E-09  0.413E-03    4.59       7.0  T
   4    -12.5943711 -0.771008E-07  0.233E-03    4.59      12.4  T
   5    -12.5943711 -0.205804E-07  0.831E-04    4.59      34.7  T
   6    -12.5943711 -0.416224E-09  0.109E-04    4.59     265.7  T
   7    -12.5943711 -0.267857E-10  0.418E-05    4.59     690.0  T
   8    -12.5943711 -0.413891E-11  0.118E-05    4.59    2449.1  T
     SCC iter.                  ...        0 min,  0.003 sec
     gradient                   ...        0 min,  0.004 sec
 * total energy  :   -12.6784164 Eh     change        0.1760070E-04 Eh
   gradient norm :     0.0038031 Eh/α   predicted    -0.2787303E-04 (-258.36%)
   displ. norm   :     0.0365778 α      lambda       -0.6181506E-04
   maximum displ.:     0.0318081 α      in ANC's #1, #2, #8, ...

........................................................................
.............................. CYCLE   36 ..............................
........................................................................
   1    -12.5946071 -0.125946E+02  0.310E-02    4.60       0.0  T
   2    -12.5946072 -0.120786E-06  0.186E-02    4.60       1.6  T
   3    -12.5946071  0.687359E-07  0.344E-03    4.60       8.4  T
   4    -12.5946073 -0.116853E-06  0.154E-03    4.60      18.8  T
   5    -12.5946073 -0.294773E-08  0.196E-04    4.60     147.0  T
   6    -12.5946073 -0.289136E-09  0.583E-05    4.60     495.3  T
   7    -12.5946073 -0.411582E-11  0.153E-05    4.60    1888.9  T
   8    -12.5946073 -0.230926E-12  0.337E-06    4.60    8565.1  T
     SCC iter.                  ...        0 min,  0.003 sec
     gradient                   ...        0 min,  0.004 sec
 * total energy  :   -12.6784442 Eh     change       -0.2781069E-04 Eh
   gradient norm :     0.0012809 Eh/α   predicted    -0.3095004E-04 (  11.29%)
   displ. norm   :     0.0242592 α      lambda       -0.1156878E-04
   maximum displ.:     0.0103036 α      in ANC's #1, #2, #12, ...

........................................................................
.............................. CYCLE   37 ..............................
........................................................................
   1    -12.5939949 -0.125940E+02  0.286E-02    4.59       0.0  T
   2    -12.5939952 -0.306910E-06  0.162E-02    4.59       1.8  T
   3    -12.5939952 -0.391612E-07  0.313E-03    4.59       9.2  T
   4    -12.5939952 -0.399735E-07  0.141E-03    4.59      20.5  T
   5    -12.5939952 -0.226453E-08  0.496E-04    4.59      58.2  T
   6    -12.5939952 -0.118243E-08  0.115E-04    4.59     250.3  T
   7    -12.5939952 -0.586393E-10  0.364E-05    4.59     792.4  T
   8    -12.5939952 -0.174261E-11  0.856E-06    4.59    3370.5  T
     SCC iter.                  ...        0 min,  0.003 sec
     gradient                   ...        0 min,  0.004 sec
 * total energy  :   -12.6784240 Eh     change        0.2013718E-04 Eh
   gradient norm :     0.0041807 Eh/α   predicted    -0.5787888E-05 (-128.74%)
   displ. norm   :     0.0121872 α      lambda       -0.3015817E-04
   maximum displ.:     0.0046629 α      in ANC's #2, #8, #4, ...

........................................................................
.............................. CYCLE   38 ..............................
........................................................................
   1    -12.5942814 -0.125943E+02  0.149E-02    4.60       0.0  T
   2    -12.5942814 -0.684483E-07  0.842E-03    4.60       3.4  T
   3    -12.5942814  0.284092E-08  0.186E-03    4.60      15.5  T
   4    -12.5942814 -0.255746E-07  0.767E-04    4.60      37.7  T
   5    -12.5942814 -0.525452E-09  0.252E-04    4.60     114.6  T
   6    -12.5942814 -0.280085E-09  0.471E-05    4.60     612.8  T
   7    -12.5942814 -0.310862E-11  0.172E-05    4.60    1677.0  T
     SCC iter.                  ...        0 min,  0.003 sec
     gradient                   ...        0 min,  0.004 sec
 * total energy  :   -12.6784440 Eh     change       -0.1992741E-04 Eh
   gradient norm :     0.0014097 Eh/α   predicted    -0.1508079E-04 ( -24.32%)
   displ. norm   :     0.0114476 α      lambda       -0.5502938E-05
   maximum displ.:     0.0065084 α      in ANC's #1, #5, #3, ...

........................................................................
.............................. CYCLE   39 ..............................
........................................................................
   1    -12.5946067 -0.125946E+02  0.123E-02    4.60       0.0  T
   2    -12.5946068 -0.106797E-06  0.707E-03    4.60       4.1  T
   3    -12.5946068 -0.484762E-08  0.203E-03    4.60      14.2  T
   4    -12.5946068 -0.889457E-08  0.773E-04    4.60      37.4  T
   5    -12.5946068 -0.306595E-08  0.298E-04    4.60      96.7  T
   6    -12.5946068 -0.121954E-09  0.656E-05    4.60     440.0  T
   7    -12.5946068 -0.179927E-10  0.198E-05    4.60    1458.1  T
   8    -12.5946068 -0.518696E-12  0.606E-06    4.60    4761.0  T
     SCC iter.                  ...        0 min,  0.003 sec
     gradient                   ...        0 min,  0.004 sec
 * total energy  :   -12.6784452 Eh     change       -0.1230250E-05 Eh
   gradient norm :     0.0009951 Eh/α   predicted    -0.2750629E-05 ( 123.58%)
   displ. norm   :     0.0091304 α      lambda       -0.2180038E-05
   maximum displ.:     0.0057121 α      in ANC's #5, #1, #2, ...

........................................................................
.............................. CYCLE   40 ..............................
........................................................................
   1    -12.5944381 -0.125944E+02  0.847E-03    4.60       0.0  T
   2    -12.5944382 -0.900061E-07  0.465E-03    4.60       6.2  T
   3    -12.5944382 -0.873319E-09  0.214E-03    4.60      13.5  T
   4    -12.5944382 -0.106568E-07  0.585E-04    4.60      49.3  T
   5    -12.5944382 -0.305682E-08  0.171E-04    4.60     168.8  T
   6    -12.5944382 -0.144063E-10  0.542E-05    4.60     532.3  T
   7    -12.5944382 -0.561506E-11  0.154E-05    4.60    1868.8  T
   8    -12.5944382 -0.429878E-12  0.471E-06    4.60    6122.5  T
     SCC iter.                  ...        0 min,  0.003 sec
     gradient                   ...        0 min,  0.004 sec
 * total energy  :   -12.6784461 Eh     change       -0.8720718E-06 Eh
   gradient norm :     0.0005726 Eh/α   predicted    -0.1091484E-05 (  25.16%)
   displ. norm   :     0.0065516 α      lambda       -0.1047423E-05
   maximum displ.:     0.0043398 α      in ANC's #2, #5, #6, ...

........................................................................
.............................. CYCLE   41 ..............................
........................................................................
   1    -12.5944467 -0.125944E+02  0.660E-03    4.60       0.0  T
   2    -12.5944467 -0.222770E-07  0.360E-03    4.60       8.0  T
   3    -12.5944467  0.611298E-08  0.135E-03    4.60      21.3  T
   4    -12.5944467 -0.131311E-07  0.324E-04    4.60      89.1  T
   5    -12.5944467 -0.184167E-09  0.143E-04    4.60     201.7  T
   6    -12.5944467 -0.165272E-10  0.259E-05    4.60    1115.0  T
   7    -12.5944467 -0.298961E-11  0.110E-05    4.60    2623.1  T
     SCC iter.                  ...        0 min,  0.003 sec
     gradient                   ...        0 min,  0.004 sec
 * total energy  :   -12.6784462 Eh     change       -0.1734533E-06 Eh
   gradient norm :     0.0004587 Eh/α   predicted    -0.5242741E-06 ( 202.26%)
   displ. norm   :     0.0035608 α      lambda       -0.5473195E-06
   maximum displ.:     0.0018546 α      in ANC's #6, #2, #3, ...

........................................................................
.............................. CYCLE   42 ..............................
........................................................................
   1    -12.5944595 -0.125945E+02  0.429E-03    4.60       0.0  T
   2    -12.5944595 -0.117240E-07  0.246E-03    4.60      11.7  T
   3    -12.5944595 -0.143388E-08  0.508E-04    4.60      56.8  T
   4    -12.5944595 -0.424830E-09  0.182E-04    4.60     158.7  T
   5    -12.5944595 -0.662990E-10  0.828E-05    4.60     348.8  T
   6    -12.5944595 -0.312284E-11  0.176E-05    4.60    1644.7  T
   7    -12.5944595 -0.266809E-11  0.545E-06    4.60    5297.5  T
     SCC iter.                  ...        0 min,  0.002 sec
     gradient                   ...        0 min,  0.004 sec
 * total energy  :   -12.6784465 Eh     change       -0.2516081E-06 Eh
   gradient norm :     0.0002599 Eh/α   predicted    -0.2725493E-06 (   8.32%)
   displ. norm   :     0.0024606 α      lambda       -0.2294020E-06
   maximum displ.:     0.0012221 α      in ANC's #9, #4, #11, ...
 * RMSD in coord.:     0.6919604 α      energy gain  -0.1202028E+00 Eh

generating ANC from model Hessian ...
Using Lindh-Hessian (1995)
 Shifting diagonal of input Hessian by   7.445558370192867E-003
 Lowest  eigenvalues of input Hessian
   -0.000000   -0.000000   -0.000000   -0.000000    0.000000    0.000000
    0.010000    0.011452    0.013364    0.023692    0.024498    0.026913
    0.032776    0.036854    0.053194    0.057433    0.068601    0.073544
 Highest eigenvalues
    0.814221    0.937935    1.388918    1.402780    1.613688    1.860704
 

........................................................................
.............................. CYCLE   43 ..............................
........................................................................
   1    -12.5944948 -0.125945E+02  0.284E-03    4.60       0.0  T
   2    -12.5944948 -0.833204E-08  0.162E-03    4.60      17.8  T
   3    -12.5944948 -0.660698E-10  0.569E-04    4.60      50.7  T
   4    -12.5944948 -0.816918E-09  0.186E-04    4.60     155.3  T
   5    -12.5944948 -0.251742E-09  0.621E-05    4.60     464.5  T
   6    -12.5944948 -0.363798E-11  0.203E-05    4.60    1425.3  T
   7    -12.5944948 -0.765610E-12  0.487E-06    4.60    5932.8  T
     SCC iter.                  ...        0 min,  0.003 sec
     gradient                   ...        0 min,  0.004 sec
 * total energy  :   -12.6784465 Eh     change       -0.1944519E-07 Eh
   gradient norm :     0.0002647 Eh/α   predicted     0.0000000E+00 (-100.00%)
   displ. norm   :     0.0039431 α      lambda       -0.2514903E-06
   maximum displ.:     0.0021794 α      in ANC's #3, #1, #5, ...

........................................................................
.............................. CYCLE   44 ..............................
........................................................................
   1    -12.5944638 -0.125945E+02  0.280E-03    4.60       0.0  T
   2    -12.5944638 -0.270632E-08  0.155E-03    4.60      18.6  T
   3    -12.5944638 -0.211413E-09  0.296E-04    4.60      97.4  T
   4    -12.5944638 -0.274294E-09  0.131E-04    4.60     219.5  T
   5    -12.5944638 -0.564597E-10  0.544E-05    4.60     530.8  T
   6    -12.5944638 -0.766853E-11  0.113E-05    4.60    2543.5  T
   7    -12.5944638 -0.628830E-12  0.466E-06    4.60    6192.2  T
     SCC iter.                  ...        0 min,  0.003 sec
     gradient                   ...        0 min,  0.004 sec
 * total energy  :   -12.6784464 Eh     change        0.1223106E-06 Eh
   gradient norm :     0.0001868 Eh/α   predicted    -0.1262578E-06 (-203.23%)
   displ. norm   :     0.0032386 α      lambda       -0.3101329E-06
   maximum displ.:     0.0020699 α      in ANC's #3, #5, #4, ...

........................................................................
.............................. CYCLE   45 ..............................
........................................................................
   1    -12.5944628 -0.125945E+02  0.181E-03    4.60       0.0  T
   2    -12.5944628 -0.650344E-09  0.102E-03    4.60      28.2  T
   3    -12.5944628  0.667555E-10  0.194E-04    4.60     148.5  T
   4    -12.5944628 -0.300334E-09  0.872E-05    4.60     330.9  T
   5    -12.5944628 -0.117080E-10  0.202E-05    4.60    1427.6  T
   6    -12.5944628 -0.134825E-11  0.433E-06    4.60    6668.1  T
     SCC iter.                  ...        0 min,  0.002 sec
     gradient                   ...        0 min,  0.004 sec
 * total energy  :   -12.6784466 Eh     change       -0.1960919E-06 Eh
   gradient norm :     0.0000915 Eh/α   predicted    -0.1538477E-06 ( -21.54%)
   displ. norm   :     0.0014611 α      lambda       -0.5507706E-07
   maximum displ.:     0.0009061 α      in ANC's #9, #5, #6, ...

........................................................................
.............................. CYCLE   46 ..............................
........................................................................
   1    -12.5944811 -0.125945E+02  0.169E-03    4.60       0.0  T
   2    -12.5944811 -0.561993E-09  0.970E-04    4.60      29.8  T
   3    -12.5944811  0.125931E-09  0.182E-04    4.60     158.5  T
   4    -12.5944811 -0.369264E-09  0.664E-05    4.60     434.6  T
   5    -12.5944811 -0.304823E-11  0.104E-05    4.60    2772.6  T
   6    -12.5944811 -0.396128E-12  0.321E-06    4.60    8999.3  T
     SCC iter.                  ...        0 min,  0.002 sec
     gradient                   ...        0 min,  0.004 sec
 * total energy  :   -12.6784466 Eh     change        0.1311802E-07 Eh
   gradient norm :     0.0000935 Eh/α   predicted    -0.2602656E-07 (-298.40%)
   displ. norm   :     0.0010274 α      lambda       -0.4920516E-07
   maximum displ.:     0.0005664 α      in ANC's #6, #9, #7, ...

........................................................................
.............................. CYCLE   47 ..............................
........................................................................
   1    -12.5944782 -0.125945E+02  0.900E-04    4.60       0.0  T
   2    -12.5944782 -0.133996E-09  0.524E-04    4.60      55.1  T
   3    -12.5944782  0.417373E-10  0.990E-05    4.60     291.6  T
   4    -12.5944782 -0.940510E-10  0.391E-05    4.60     737.6  T
   5    -12.5944782 -0.103562E-11  0.888E-06    4.60    3252.6  T
     SCC iter.                  ...        0 min,  0.002 sec
     gradient                   ...        0 min,  0.004 sec
 * total energy  :   -12.6784466 Eh     change       -0.3331636E-07 Eh
   gradient norm :     0.0000294 Eh/α   predicted    -0.2393497E-07 ( -28.16%)
   displ. norm   :     0.0008149 α      lambda       -0.8092487E-08
   maximum displ.:     0.0004094 α      in ANC's #6, #9, #3, ...

   *** GEOMETRY OPTIMIZATION CONVERGED AFTER 47 ITERATIONS ***

------------------------------------------------------------------------
 total energy gain :         -12.6784466 Eh    -7955.8454 kcal/mol
 total RMSD        :           2.7442063 α         1.4522 Å
------------------------------------------------------------------------

 ANCopt (total)                0 d,  0 h,  0 min,  0.613 sec
 optimizer setup                ...        0 min,  0.001 sec (  0.212%)
 model hessian                  ...        0 min,  0.012 sec (  1.929%)
 ANC generation                 ...        0 min,  0.002 sec (  0.265%)
 coordinate transformation      ...        0 min,  0.000 sec (  0.059%)
 single point calculation       ...        0 min,  0.478 sec ( 78.032%)
 optimization log               ...        0 min,  0.040 sec (  6.493%)
 hessian update                 ...        0 min,  0.000 sec (  0.064%)
 rational function              ...        0 min,  0.005 sec (  0.850%)

================
 final structure:
================
$coord
    1.91500926677129   -0.01906758448910    1.08206679955682      N 
    3.82932451600227    0.23623946421121   -1.48147316138363      B 
    1.19909315300106   -4.61766949142195    1.19504213227019      N 
    0.26585166711068   -2.23091445937384    0.71961828384328      B 
    3.03532653452343   -4.95329471100226    1.57084120321515      H 
    5.27131560455319   -1.49284586464060   -1.32851408619056      H 
    4.83088055860298    2.24710879651707   -1.26501531798994      H 
    0.98049227407461    1.64516377974603    1.16731120981148      H 
    3.13971105241081   -0.12294178168710    2.54571995568090      H 
    0.21723820917851   -6.20591093769747    0.84521788613907      H 
   -1.81601299671245   -1.92907422319888    0.03740919401610      H 
    2.50204201194214    0.10371373927720   -3.29518405345778      H 
$end
 
 Bond Distances (Angstroems)
 ---------------------------
N1-B2=1.6984         N1-B4=1.4725         N1-H8=1.0110         N1-H9=1.0114         B2-N1=1.6984         B2-H6=1.1942         
B2-H7=1.1943         B2-H12=1.1914        N3-B4=1.3793         N3-H5=1.0076         N3-H10=1.0053        B4-N1=1.4725         
B4-N3=1.3793         B4-H11=1.1703        H5-N3=1.0076         H6-B2=1.1942         H7-B2=1.1943         H8-N1=1.0110         
H9-N1=1.0114         H10-N3=1.0053        H11-B4=1.1703        H12-B2=1.1914        
 B  H  Rav=1.1875 sigma=0.0100  Rmin=1.1703  Rmax=1.1943     4
 N  H  Rav=1.0088 sigma=0.0025  Rmin=1.0053  Rmax=1.0114     4
 N  B  Rav=1.5168 sigma=0.1340  Rmin=1.3793  Rmax=1.6984     3
 
 selected bond angles (degree)
 --------------------
B4-N1-B2=108.22                H8-N1-B2=104.96                H8-N1-B4=114.10                H9-N1-B2=103.52                
H9-N1-B4=115.87                H9-N1-H8=109.06                H6-B2-N1=105.43                H7-B2-N1=105.01                
H7-B2-H6=113.12                H12-B2-N1=106.69               H12-B2-H6=112.72               H12-B2-H7=113.04               
H5-N3-B4=122.87                H10-N3-B4=123.16               H10-N3-H5=112.79               N3-B4-N1=119.47                
H11-B4-N1=119.31               H11-B4-N3=121.22               
 
 selected dihedral angles (degree)
 ---------------------------------
H6-B2-N1-B4=289.44            H6-B2-N1-H8=167.24            H6-B2-N1-H9= 52.91            H7-B2-N1-B4=169.72            
H7-B2-N1-H8= 47.52            H7-B2-N1-H9=293.20            H12-B2-N1-B4= 49.50           H12-B2-N1-H8=287.30           
H12-B2-N1-H9=172.98           N3-B4-N1-B2= 79.63            N3-B4-N1-H8=196.05            N3-B4-N1-H9=323.96            
H11-B4-N1-B2=259.49           H11-B4-N1-H8= 15.90           H11-B4-N1-H9=143.82           N1-B4-N3-H5=351.95            
N1-B4-N3-H10=185.29           H11-B4-N3-H5=172.10           H11-B4-N3-H10=  5.44          
 
 CMA Distance (Angstroems)
 ---------------------------
R(CMA):  2.2729

========================================================================
 FINAL SINGLEPOINT CALCULATION ON OPTIMIZED GEOMETRY
========================================================================

          ...................................................
          :                      SETUP                      :
          :.................................................:
          :  # basis functions                  24          :
          :  # atomic orbitals                  24          :
          :  # shells                           16          :
[...]

........................................................................
.............................. CYCLE   50 ..............................
........................................................................
   1    -12.5929074 -0.125929E+02  0.983E-03    4.59       0.0  T
   2    -12.5929074 -0.154345E-07  0.560E-03    4.59       5.2  T
   3    -12.5929074 -0.635730E-08  0.412E-04    4.59      70.1  T
   4    -12.5929074 -0.260535E-09  0.235E-04    4.59     123.0  T
   5    -12.5929074 -0.849827E-10  0.587E-05    4.59     492.2  T
   6    -12.5929074 -0.216929E-10  0.132E-05    4.59    2188.7  T
   7    -12.5929074 -0.758504E-12  0.537E-06    4.59    5376.7  T
     SCC iter.                  ...        0 min,  0.003 sec
     gradient                   ...        0 min,  0.004 sec
 * total energy  :   -12.9769024 Eh     change        0.1377471E-05 Eh
   gradient norm :     0.0004960 Eh/α   predicted    -0.3186852E-06 (-123.14%)
   displ. norm   :     0.0066904 α      lambda       -0.1998913E-05
   maximum displ.:     0.0035441 α      in ANC's #4, #3, #2, ...

........................................................................
.............................. CYCLE   51 ..............................
........................................................................
   1    -12.5929027 -0.125929E+02  0.801E-03    4.59       0.0  T
   2    -12.5929027 -0.104321E-07  0.455E-03    4.59       6.3  T
   3    -12.5929027 -0.437762E-08  0.321E-04    4.59      90.0  T
   4    -12.5929027 -0.176543E-09  0.186E-04    4.59     154.8  T
   5    -12.5929027 -0.763940E-10  0.445E-05    4.59     648.9  T
   6    -12.5929027 -0.123617E-10  0.104E-05    4.59    2772.9  T
     SCC iter.                  ...        0 min,  0.002 sec
     gradient                   ...        0 min,  0.004 sec
 * total energy  :   -12.9769039 Eh     change       -0.1432306E-05 Eh
   gradient norm :     0.0000918 Eh/α   predicted    -0.9998887E-06 ( -30.19%)
   displ. norm   :     0.0059199 α      lambda       -0.3000910E-06
   maximum displ.:     0.0045552 α      in ANC's #2, #8, #3, ...

........................................................................
.............................. CYCLE   52 ..............................
........................................................................
   1    -12.5928914 -0.125929E+02  0.482E-03    4.59       0.0  T
   2    -12.5928914 -0.237672E-08  0.273E-03    4.59      10.6  T
   3    -12.5928914 -0.952332E-09  0.241E-04    4.59     119.6  T
   4    -12.5928914 -0.324221E-10  0.128E-04    4.59     225.7  T
   5    -12.5928914 -0.198206E-10  0.190E-05    4.59    1517.3  T
   6    -12.5928914 -0.254552E-11  0.716E-06    4.59    4029.3  T
     SCC iter.                  ...        0 min,  0.002 sec
     gradient                   ...        0 min,  0.004 sec
 * total energy  :   -12.9769031 Eh     change        0.7137756E-06 Eh
   gradient norm :     0.0003359 Eh/α   predicted    -0.1508783E-06 (-121.14%)
   displ. norm   :     0.0054367 α      lambda       -0.1050137E-05
   maximum displ.:     0.0046742 α      in ANC's #2, #3, #8, ...

........................................................................
.............................. CYCLE   53 ..............................
........................................................................
   1    -12.5928979 -0.125929E+02  0.388E-03    4.59       0.0  T
   2    -12.5928979 -0.172377E-08  0.219E-03    4.59      13.2  T
   3    -12.5928979 -0.752426E-09  0.166E-04    4.59     173.6  T
   4    -12.5928979  0.916600E-12  0.691E-05    4.59     418.0  T
   5    -12.5928979 -0.141309E-10  0.120E-05    4.59    2399.9  T
   6    -12.5928979 -0.607514E-12  0.522E-06    4.59    5532.7  T
     SCC iter.                  ...        0 min,  0.002 sec
     gradient                   ...        0 min,  0.004 sec
 * total energy  :   -12.9769038 Eh     change       -0.6785045E-06 Eh
   gradient norm :     0.0001257 Eh/α   predicted    -0.5242524E-06 ( -22.73%)
   displ. norm   :     0.0063543 α      lambda       -0.5020127E-06
   maximum displ.:     0.0036983 α      in ANC's #8, #4, #2, ...

........................................................................
.............................. CYCLE   54 ..............................
........................................................................
   1    -12.5929090 -0.125929E+02  0.707E-03    4.59       0.0  T
   2    -12.5929090 -0.820936E-08  0.403E-03    4.59       7.2  T
   3    -12.5929090 -0.310282E-08  0.349E-04    4.59      82.7  T
   4    -12.5929090 -0.119117E-09  0.179E-04    4.59     161.7  T
   5    -12.5929090 -0.250910E-10  0.448E-05    4.59     645.1  T
   6    -12.5929090 -0.607514E-11  0.148E-05    4.59    1956.5  T
     SCC iter.                  ...        0 min,  0.002 sec
     gradient                   ...        0 min,  0.004 sec
 * total energy  :   -12.9769028 Eh     change        0.1042414E-05 Eh
   gradient norm :     0.0004930 Eh/α   predicted    -0.2508794E-06 (-124.07%)
   displ. norm   :     0.0049181 α      lambda       -0.1514810E-05
   maximum displ.:     0.0031856 α      in ANC's #8, #5, #4, ...

........................................................................
.............................. CYCLE   55 ..............................
........................................................................
   1    -12.5929018 -0.125929E+02  0.497E-03    4.59       0.0  T
   2    -12.5929018 -0.390299E-08  0.284E-03    4.59      10.2  T
   3    -12.5929018 -0.134653E-08  0.272E-04    4.59     106.1  T
   4    -12.5929018 -0.766942E-10  0.141E-04    4.59     204.2  T
   5    -12.5929018 -0.224443E-10  0.439E-05    4.59     657.3  T
   6    -12.5929018 -0.101874E-10  0.121E-05    4.59    2391.0  T
     SCC iter.                  ...        0 min,  0.002 sec
     gradient                   ...        0 min,  0.004 sec
 * total energy  :   -12.9769039 Eh     change       -0.1106565E-05 Eh
   gradient norm :     0.0000612 Eh/α   predicted    -0.7582224E-06 ( -31.48%)
   displ. norm   :     0.0034527 α      lambda       -0.1300888E-06
   maximum displ.:     0.0021696 α      in ANC's #4, #5, #6, ...

........................................................................
.............................. CYCLE   56 ..............................
........................................................................
   1    -12.5928930 -0.125929E+02  0.362E-03    4.59       0.0  T
   2    -12.5928930 -0.272324E-08  0.203E-03    4.59      14.2  T
   3    -12.5928930 -0.148431E-09  0.320E-04    4.59      90.3  T
   4    -12.5928930 -0.106509E-08  0.103E-04    4.59     279.3  T
   5    -12.5928930 -0.749623E-12  0.211E-05    4.59    1368.1  T
   6    -12.5928930 -0.115286E-11  0.640E-06    4.59    4511.1  T
     SCC iter.                  ...        0 min,  0.002 sec
     gradient                   ...        0 min,  0.004 sec
 * total energy  :   -12.9769036 Eh     change        0.2679681E-06 Eh
   gradient norm :     0.0002198 Eh/α   predicted    -0.6505034E-07 (-124.28%)
   displ. norm   :     0.0027555 α      lambda       -0.3875568E-06
   maximum displ.:     0.0017936 α      in ANC's #4, #5, #6, ...

........................................................................
.............................. CYCLE   57 ..............................
........................................................................
   1    -12.5929002 -0.125929E+02  0.289E-03    4.59       0.0  T
   2    -12.5929002 -0.172849E-08  0.162E-03    4.59      17.8  T
   3    -12.5929002 -0.699565E-10  0.259E-04    4.59     111.4  T
   4    -12.5929002 -0.698266E-09  0.832E-05    4.59     346.8  T
   5    -12.5929002 -0.381917E-12  0.174E-05    4.59    1661.3  T
   6    -12.5929002 -0.587974E-12  0.497E-06    4.59    5813.6  T
     SCC iter.                  ...        0 min,  0.002 sec
     gradient                   ...        0 min,  0.004 sec
 * total energy  :   -12.9769039 Eh     change       -0.2913808E-06 Eh
   gradient norm :     0.0000215 Eh/α   predicted    -0.1940418E-06 ( -33.41%)
   displ. norm   :     0.0010254 α      lambda       -0.1156014E-07
   maximum displ.:     0.0007343 α      in ANC's #6, #5, #7, ...

........................................................................
.............................. CYCLE   58 ..............................
........................................................................
   1    -12.5928998 -0.125929E+02  0.577E-04    4.59       0.0  T
   2    -12.5928998 -0.922107E-10  0.337E-04    4.59      85.5  T
   3    -12.5928998 -0.102958E-10  0.539E-05    4.59     535.1  T
   4    -12.5928998 -0.812506E-11  0.252E-05    4.59    1146.5  T
   5    -12.5928998 -0.907718E-12  0.762E-06    4.59    3788.1  T
     SCC iter.                  ...        0 min,  0.002 sec
     gradient                   ...        0 min,  0.004 sec
 * total energy  :   -12.9769039 Eh     change        0.3238101E-07 Eh
   gradient norm :     0.0000854 Eh/α   predicted    -0.6610653E-08 (-120.42%)
   displ. norm   :     0.0008376 α      lambda       -0.4433893E-07
   maximum displ.:     0.0006135 α      in ANC's #6, #5, #7, ...

........................................................................
.............................. CYCLE   59 ..............................
........................................................................
   1    -12.5929002 -0.125929E+02  0.432E-04    4.59       0.0  T
   2    -12.5929002 -0.588045E-10  0.253E-04    4.59     114.3  T
   3    -12.5929002 -0.577671E-11  0.431E-05    4.59     670.0  T
   4    -12.5929002 -0.523848E-11  0.196E-05    4.59    1470.7  T
     SCC iter.                  ...        0 min,  0.002 sec
     gradient                   ...        0 min,  0.004 sec
 * total energy  :   -12.9769039 Eh     change       -0.3620920E-07 Eh
   gradient norm :     0.0000087 Eh/α   predicted    -0.2195137E-07 ( -39.38%)
   displ. norm   :     0.0002241 α      lambda       -0.4959033E-08
   maximum displ.:     0.0001579 α      in ANC's #10, #11, #13, ...

   *** GEOMETRY OPTIMIZATION CONVERGED AFTER 59 ITERATIONS ***

------------------------------------------------------------------------
 total energy gain :          -0.1790895 Eh     -112.3804 kcal/mol
 total RMSD        :           2.7457245 α         1.4530 Å
------------------------------------------------------------------------

 ANCopt (total)                0 d,  0 h,  0 min,  0.697 sec
 optimizer setup                ...        0 min,  0.001 sec (  0.121%)
 model hessian                  ...        0 min,  0.011 sec (  1.647%)
 ANC generation                 ...        0 min,  0.002 sec (  0.227%)
 coordinate transformation      ...        0 min,  0.000 sec (  0.063%)
 single point calculation       ...        0 min,  0.530 sec ( 76.005%)
 optimization log               ...        0 min,  0.049 sec (  6.995%)
 hessian update                 ...        0 min,  0.000 sec (  0.070%)
 rational function              ...        0 min,  0.006 sec (  0.920%)

================
 final structure:
================
$coord
    1.85927033905916   -0.07257207928034    1.15484867668191      N 
    3.85164292531586    0.36077040446834   -1.33156390806808      B 
    1.23497913550856   -4.69225166162951    0.98376842900586      N 
    0.27134649964651   -2.29701778585887    0.61326758692976      B 
    3.06666392596653   -5.02376899816159    1.38972710759185      H 
    5.31698909073760   -1.35668903564715   -1.22016351869199      H 
    4.80575667264061    2.37894827943144   -0.97364846942215      H 
    0.87452747335775    1.55884683135160    1.30882107145618      H 
    3.02158036299955   -0.23269247726818    2.66505692572514      H 
    0.28656735224683   -6.27062977572996    0.51282170011081      H 
   -1.79735828955379   -1.98916737702474   -0.11620274781779      H 
    2.57930180715228    0.30112154561866   -3.19240317815488      H 
$end
 
 Bond Distances (Angstroems)
 ---------------------------
N1-B2=1.7016         N1-B4=1.4744         N1-H8=1.0117         N1-H9=1.0120         B2-N1=1.7016         B2-H6=1.1961         
B2-H7=1.1964         B2-H12=1.1933        N3-B4=1.3802         N3-H5=1.0082         N3-H10=1.0058        B4-N1=1.4744         
B4-N3=1.3802         B4-H11=1.1722        H5-N3=1.0082         H6-B2=1.1961         H7-B2=1.1964         H8-N1=1.0117         
H9-N1=1.0120         H10-N3=1.0058        H11-B4=1.1722        H12-B2=1.1933        
 B  H  Rav=1.1895 sigma=0.0101  Rmin=1.1722  Rmax=1.1964     4
 N  H  Rav=1.0094 sigma=0.0026  Rmin=1.0058  Rmax=1.0120     4
 N  B  Rav=1.5187 sigma=0.1349  Rmin=1.3802  Rmax=1.7016     3
 
 selected bond angles (degree)
 --------------------
B4-N1-B2=108.08                H8-N1-B2=105.45                H8-N1-B4=113.79                H9-N1-B2=104.20                
H9-N1-B4=115.66                H9-N1-H8=108.72                H6-B2-N1=105.14                H7-B2-N1=105.03                
H7-B2-H6=113.38                H12-B2-N1=106.55               H12-B2-H6=112.73               H12-B2-H7=113.10               
H5-N3-B4=123.04                H10-N3-B4=122.89               H10-N3-H5=112.83               N3-B4-N1=119.67                
H11-B4-N1=119.03               H11-B4-N3=121.30               
 
 selected dihedral angles (degree)
 ---------------------------------
H6-B2-N1-B4=289.65            H6-B2-N1-H8=167.61            H6-B2-N1-H9= 53.20            H7-B2-N1-B4=169.76            
H7-B2-N1-H8= 47.72            H7-B2-N1-H9=293.30            H12-B2-N1-B4= 49.52           H12-B2-N1-H8=287.48           
H12-B2-N1-H9=173.06           N3-B4-N1-B2= 79.61            N3-B4-N1-H8=196.37            N3-B4-N1-H9=323.30            
H11-B4-N1-B2=259.28           H11-B4-N1-H8= 16.04           H11-B4-N1-H9=142.97           N1-B4-N3-H5=351.48            
N1-B4-N3-H10=185.09           H11-B4-N3-H5=171.82           H11-B4-N3-H10=  5.43          
 
 CMA Distance (Angstroems)
 ---------------------------
R(CMA):  2.2756

========================================================================
 FINAL SINGLEPOINT CALCULATION ON OPTIMIZED GEOMETRY
========================================================================

          ...................................................
          :                      SETUP                      :
          :.................................................:
          :  # basis functions                  24          :
          :  # atomic orbitals                  24          :
          :  # shells                           16          :
          :  # electrons                        24          :
          :  max. iterations                    50          :
          :  Hamiltonian                  GFN2-xTB          :
          :  restarted?                      false          :
          :  GBSA solvation                  false          :
          :  PC potential                    false          :
          :  electronic temp.          300.0000000     K    :
          :  accuracy                    1.0000000          :
          :  -> integral cutoff          0.2500000E+02      :
          :  -> integral neglect         0.1000000E-07      :
          :  -> SCF convergence          0.1000000E-05 Eh   :
          :  -> wf. convergence          0.1000000E-03 e    :
          :  Broyden damping             0.4000000          :
          ...................................................

 iter      E             dE          RMSdq      gap      omega  full diag
   1    -12.5929002 -0.125929E+02  0.350E-06    4.59       0.0  T
   2    -12.5929002 -0.532907E-13  0.212E-06    4.59   13586.7  T
   3    -12.5929002  0.532907E-14  0.127E-06    4.59   22786.1  T

   *** convergence criteria satisfied after 3 iterations ***

         #    Occupation            Energy/Eh            Energy/eV
      -------------------------------------------------------------
         1        2.0000           -0.6184883             -16.8299
       ...           ...                  ...                  ...
         6        2.0000           -0.4957594             -13.4903
         7        2.0000           -0.4849476             -13.1961
         8        2.0000           -0.4469022             -12.1608
         9        2.0000           -0.4334950             -11.7960
        10        2.0000           -0.4053266             -11.0295
        11        2.0000           -0.3581225              -9.7450
        12        2.0000           -0.3562955              -9.6953 (HOMO)
        13                         -0.1877674              -5.1094 (LUMO)
        14                         -0.0031928              -0.0869
        15                          0.0504749               1.3735
        16                          0.0966911               2.6311
        17                          0.1523978               4.1470
       ...                                ...                  ...
        24                          0.4993392              13.5877
      -------------------------------------------------------------
                  HL-Gap            0.1685281 Eh            4.5859 eV
             Fermi-level           -0.2720314 Eh           -7.4024 eV

 SCC (total)                   0 d,  0 h,  0 min,  0.072 sec
 SCC setup                      ...        0 min,  0.000 sec (  0.281%)
 Dispersion                     ...        0 min,  0.000 sec (  0.107%)
 integral evaluation            ...        0 min,  0.002 sec (  3.010%)
 zeroth order Hamiltonian       ...        0 min,  0.000 sec (  0.049%)
 iterations                     ...        0 min,  0.001 sec (  1.709%)
 molecular gradient             ...        0 min,  0.004 sec (  5.021%)
 printout                       ...        0 min,  0.065 sec ( 89.785%)

         :::::::::::::::::::::::::::::::::::::::::::::::::::::
         ::                     SUMMARY                     ::
         :::::::::::::::::::::::::::::::::::::::::::::::::::::
         :: total energy              -12.976903911642 Eh   ::
         :: gradient norm               0.000008644068 Eh/α ::
         :: HOMO-LUMO gap               4.585883539559 eV   ::
         ::.................................................::
         :: SCC energy                -12.592900197865 Eh   ::
         :: -> isotropic ES             0.074065331569 Eh   ::
         :: -> anisotropic ES           0.011842803686 Eh   ::
         :: -> anisotropic XC           0.004219062293 Eh   ::
         :: -> dispersion              -0.006080349238 Eh   ::
         :: repulsion energy            0.153307612049 Eh   ::
         :: add. restraining           -0.537315970004 Eh   ::
         :::::::::::::::::::::::::::::::::::::::::::::::::::::

  # of points on xtbopt.log:           59
  doing short optimizations without Vbias ... 
   10  unconstrained dE :      0.015024
   20  unconstrained dE :     -0.006687
   30  unconstrained dE :     -0.007345
   40  unconstrained dE :     -0.007343
   50  unconstrained dE :     -0.007342
 final path written to xtbpath_3.xyz
 
 energies in kcal/mol, RMSD in Bohr
run 1  barrier:  16.28  dE:  -4.64  ed-prod RMSD:  2.74  ed-startpath RMSD:  0.05  prod-endpath RMSD:  0.06
run 2  barrier:  18.43  dE:  -4.60  ed-prod RMSD:  2.74  ed-startpath RMSD:  0.04  prod-endpath RMSD:  0.06
run 3  barrier:  23.78  dE:  -4.61  ed-prod RMSD:  2.74  ed-startpath RMSD:  0.04  prod-endpath RMSD:  0.05
 check potential xtbpath.dat (cummu. dRMSD in Bohr vs. E in kcal)

------------------------------------------------------------------------
 * finished run on 2020/07/03 at 15:54:22.533     
------------------------------------------------------------------------
 total:
 * wall-time:     0 d,  0 h,  0 min, 23.297 sec
 *  cpu-time:     0 d,  0 h,  0 min,  5.340 sec
 * ratio c/w:     0.229 speedup
 SCF:
 * wall-time:     0 d,  0 h,  0 min,  0.155 sec
 *  cpu-time:     0 d,  0 h,  0 min,  0.008 sec
 * ratio c/w:     0.051 speedup

