 Entering Gaussian System, Link 0=/opt/gaussian/g16/legacy/g16/g16
 Initial command:
 /opt/gaussian/g16/legacy/g16/l1.exe "/scratch/1311848/Gau-12474.inp" -scrdir="/scratch/1311848/"
 Entering Link 1 = /opt/gaussian/g16/legacy/g16/l1.exe PID=     12489.
  
 Copyright (c) 1988,1990,1992,1993,1995,1998,2003,2009,2016,
            Gaussian, Inc.  All Rights Reserved.
  
 This is part of the Gaussian(R) 16 program.  It is based on
 the Gaussian(R) 09 system (copyright 2009, Gaussian, Inc.),
 the Gaussian(R) 03 system (copyright 2003, Gaussian, Inc.),
 the Gaussian(R) 98 system (copyright 1998, Gaussian, Inc.),
 the Gaussian(R) 94 system (copyright 1995, Gaussian, Inc.),
 the Gaussian 92(TM) system (copyright 1992, Gaussian, Inc.),
 the Gaussian 90(TM) system (copyright 1990, Gaussian, Inc.),
 the Gaussian 88(TM) system (copyright 1988, Gaussian, Inc.),
 the Gaussian 86(TM) system (copyright 1986, Carnegie Mellon
 University), and the Gaussian 82(TM) system (copyright 1983,
 Carnegie Mellon University). Gaussian is a federally registered
 trademark of Gaussian, Inc.
  
 This software contains proprietary and confidential information,
 including trade secrets, belonging to Gaussian, Inc.
  
 This software is provided under written license and may be
 used, copied, transmitted, or stored only in accord with that
 written license.
  
 The following legend is applicable only to US Government
 contracts under FAR:
  
                    RESTRICTED RIGHTS LEGEND
  
 Use, reproduction and disclosure by the US Government is
 subject to restrictions as set forth in subparagraphs (a)
 and (c) of the Commercial Computer Software - Restricted
 Rights clause in FAR 52.227-19.
  
 Gaussian, Inc.
 340 Quinnipiac St., Bldg. 40, Wallingford CT 06492
  
  
 ---------------------------------------------------------------
 Warning -- This program may not be used in any manner that
 competes with the business of Gaussian, Inc. or will provide
 assistance to any competitor of Gaussian, Inc.  The licensee
 of this program is prohibited from giving any competitor of
 Gaussian, Inc. access to this program.  By using this program,
 the user acknowledges that Gaussian, Inc. is engaged in the
 business of creating and licensing software in the field of
 computational chemistry and represents and warrants to the
 licensee that it is not a competitor of Gaussian, Inc. and that
 it will not use this program in any manner prohibited above.
 ---------------------------------------------------------------
  

 Cite this work as:
 Gaussian 16, Revision A.03,
 M. J. Frisch, G. W. Trucks, H. B. Schlegel, G. E. Scuseria, 
 M. A. Robb, J. R. Cheeseman, G. Scalmani, V. Barone, 
 G. A. Petersson, H. Nakatsuji, X. Li, M. Caricato, A. V. Marenich, 
 J. Bloino, B. G. Janesko, R. Gomperts, B. Mennucci, H. P. Hratchian, 
 J. V. Ortiz, A. F. Izmaylov, J. L. Sonnenberg, D. Williams-Young, 
 F. Ding, F. Lipparini, F. Egidi, J. Goings, B. Peng, A. Petrone, 
 T. Henderson, D. Ranasinghe, V. G. Zakrzewski, J. Gao, N. Rega, 
 G. Zheng, W. Liang, M. Hada, M. Ehara, K. Toyota, R. Fukuda, 
 J. Hasegawa, M. Ishida, T. Nakajima, Y. Honda, O. Kitao, H. Nakai, 
 T. Vreven, K. Throssell, J. A. Montgomery, Jr., J. E. Peralta, 
 F. Ogliaro, M. J. Bearpark, J. J. Heyd, E. N. Brothers, K. N. Kudin, 
 V. N. Staroverov, T. A. Keith, R. Kobayashi, J. Normand, 
 K. Raghavachari, A. P. Rendell, J. C. Burant, S. S. Iyengar, 
 J. Tomasi, M. Cossi, J. M. Millam, M. Klene, C. Adamo, R. Cammi, 
 J. W. Ochterski, R. L. Martin, K. Morokuma, O. Farkas, 
 J. B. Foresman, and D. J. Fox, Gaussian, Inc., Wallingford CT, 2016.
 
 ******************************************
 Gaussian 16:  EM64L-G16RevA.03 25-Dec-2016
                 3-Jul-2020 
 ******************************************
 %mem=16GB
 %nprocshared=4
 Will use up to    4 processors via shared memory.
 ------------------------------------------------
 #opt freq ub3lyp/6-31G(d,p) scf=(maxcycles=1024)
 ------------------------------------------------
 1/18=20,19=15,26=3,38=1/1,3;
 2/9=110,12=2,17=6,18=5,40=1/2;
 3/5=1,6=6,7=101,11=2,25=1,30=1,71=1,74=-5,116=2/1,2,3;
 4//1;
 5/5=2,7=1024,38=5/2;
 6/7=2,8=2,9=2,10=2,28=1/1;
 7//1,2,3,16;
 1/18=20,19=15,26=3/3(2);
 2/9=110/2;
 99//99;
 2/9=110/2;
 3/5=1,6=6,7=101,11=2,25=1,30=1,71=1,74=-5,116=2/1,2,3;
 4/5=5,16=3,69=1/1;
 5/5=2,7=1024,38=5/2;
 7//1,2,3,16;
 1/18=20,19=15,26=3/3(-5);
 2/9=110/2;
 6/7=2,8=2,9=2,10=2,19=2,28=1/1;
 99/9=1/99;
 ---------------
 something title
 ---------------
 Symbolic Z-matrix:
 Charge =  0 Multiplicity = 1
 N                    -1.65834  -0.56417  -0.03371 
 B                    -1.0353    0.70166  -0.12002 
 N                     1.65828  -0.56421   0.03388 
 B                     1.03558   0.70149   0.11998 
 H                     2.48972  -0.72665  -0.5153 
 H                    -1.58049   1.68096   0.29489 
 H                    -0.21675   0.86467  -1.01241 
 H                    -1.2778   -1.3953   -0.46043 
 H                    -2.48985  -0.72632   0.51551 
 H                     1.27704  -1.39546   0.4595 
 H                     0.21627   0.86425   1.01182 
 H                     1.5809    1.68079  -0.29457 
 
 Add virtual bond connecting atoms B4         and H7         Dist= 3.21D+00.
 Add virtual bond connecting atoms H11        and B2         Dist= 3.20D+00.

 GradGradGradGradGradGradGradGradGradGradGradGradGradGradGradGradGradGrad
 Berny optimization.
 Initialization pass.
                           ----------------------------
                           !    Initial Parameters    !
                           ! (Angstroms and Degrees)  !
 --------------------------                            --------------------------
 ! Name  Definition              Value          Derivative Info.                !
 --------------------------------------------------------------------------------
 ! R1    R(1,2)                  1.4135         estimate D2E/DX2                !
 ! R2    R(1,8)                  1.0088         estimate D2E/DX2                !
 ! R3    R(1,9)                  1.0096         estimate D2E/DX2                !
 ! R4    R(2,6)                  1.1952         estimate D2E/DX2                !
 ! R5    R(2,7)                  1.2219         estimate D2E/DX2                !
 ! R6    R(2,11)                 1.6953         estimate D2E/DX2                !
 ! R7    R(3,4)                  1.4132         estimate D2E/DX2                !
 ! R8    R(3,5)                  1.0096         estimate D2E/DX2                !
 ! R9    R(3,10)                 1.0087         estimate D2E/DX2                !
 ! R10   R(4,7)                  1.6963         estimate D2E/DX2                !
 ! R11   R(4,11)                 1.2219         estimate D2E/DX2                !
 ! R12   R(4,12)                 1.1951         estimate D2E/DX2                !
 ! A1    A(2,1,8)              123.0734         estimate D2E/DX2                !
 ! A2    A(2,1,9)              122.6879         estimate D2E/DX2                !
 ! A3    A(8,1,9)              114.108          estimate D2E/DX2                !
 ! A4    A(1,2,6)              120.7654         estimate D2E/DX2                !
 ! A5    A(1,2,7)              117.3457         estimate D2E/DX2                !
 ! A6    A(1,2,11)             111.7489         estimate D2E/DX2                !
 ! A7    A(6,2,7)              116.7324         estimate D2E/DX2                !
 ! A8    A(6,2,11)              91.5133         estimate D2E/DX2                !
 ! A9    A(7,2,11)              88.8677         estimate D2E/DX2                !
 ! A10   A(4,3,5)              122.6916         estimate D2E/DX2                !
 ! A11   A(4,3,10)             123.0807         estimate D2E/DX2                !
 ! A12   A(5,3,10)             114.0913         estimate D2E/DX2                !
 ! A13   A(3,4,7)              111.7649         estimate D2E/DX2                !
 ! A14   A(3,4,11)             117.3356         estimate D2E/DX2                !
 ! A15   A(3,4,12)             120.7777         estimate D2E/DX2                !
 ! A16   A(7,4,11)              88.8197         estimate D2E/DX2                !
 ! A17   A(7,4,12)              91.5175         estimate D2E/DX2                !
 ! A18   A(11,4,12)            116.7418         estimate D2E/DX2                !
 ! A19   A(2,7,4)               89.6672         estimate D2E/DX2                !
 ! A20   A(2,11,4)              89.7107         estimate D2E/DX2                !
 ! D1    D(8,1,2,6)            173.1161         estimate D2E/DX2                !
 ! D2    D(8,1,2,7)             19.3217         estimate D2E/DX2                !
 ! D3    D(8,1,2,11)           -81.1853         estimate D2E/DX2                !
 ! D4    D(9,1,2,6)            -11.2871         estimate D2E/DX2                !
 ! D5    D(9,1,2,7)           -165.0815         estimate D2E/DX2                !
 ! D6    D(9,1,2,11)            94.4115         estimate D2E/DX2                !
 ! D7    D(1,2,7,4)           -103.0907         estimate D2E/DX2                !
 ! D8    D(6,2,7,4)            102.051          estimate D2E/DX2                !
 ! D9    D(11,2,7,4)            10.9268         estimate D2E/DX2                !
 ! D10   D(1,2,11,4)           103.8728         estimate D2E/DX2                !
 ! D11   D(6,2,11,4)          -131.9706         estimate D2E/DX2                !
 ! D12   D(7,2,11,4)           -15.2559         estimate D2E/DX2                !
 ! D13   D(5,3,4,7)             94.4083         estimate D2E/DX2                !
 ! D14   D(5,3,4,11)          -165.1391         estimate D2E/DX2                !
 ! D15   D(5,3,4,12)           -11.3147         estimate D2E/DX2                !
 ! D16   D(10,3,4,7)           -81.0945         estimate D2E/DX2                !
 ! D17   D(10,3,4,11)           19.358          estimate D2E/DX2                !
 ! D18   D(10,3,4,12)          173.1825         estimate D2E/DX2                !
 ! D19   D(3,4,7,2)            103.8524         estimate D2E/DX2                !
 ! D20   D(11,4,7,2)           -15.2472         estimate D2E/DX2                !
 ! D21   D(12,4,7,2)          -131.9702         estimate D2E/DX2                !
 ! D22   D(3,4,11,2)          -103.0808         estimate D2E/DX2                !
 ! D23   D(7,4,11,2)            10.9263         estimate D2E/DX2                !
 ! D24   D(12,4,11,2)          102.031          estimate D2E/DX2                !
 --------------------------------------------------------------------------------
 Trust Radius=3.00D-01 FncErr=1.00D-07 GrdErr=1.00D-06 EigMax=2.50D+02 EigMin=1.00D-04
 Number of steps in this run=     66 maximum allowed number of steps=    100.
 GradGradGradGradGradGradGradGradGradGradGradGradGradGradGradGradGradGrad

                          Input orientation:                          
 ---------------------------------------------------------------------
 Center     Atomic      Atomic             Coordinates (Angstroms)
 Number     Number       Type             X           Y           Z
 ---------------------------------------------------------------------
      1          7           0       -1.658340   -0.564170   -0.033710
      2          5           0       -1.035300    0.701660   -0.120020
      3          7           0        1.658280   -0.564210    0.033880
      4          5           0        1.035580    0.701490    0.119980
      5          1           0        2.489720   -0.726650   -0.515300
      6          1           0       -1.580490    1.680960    0.294890
      7          1           0       -0.216750    0.864670   -1.012410
      8          1           0       -1.277800   -1.395300   -0.460430
      9          1           0       -2.489850   -0.726320    0.515510
     10          1           0        1.277040   -1.395460    0.459500
     11          1           0        0.216270    0.864250    1.011820
     12          1           0        1.580900    1.680790   -0.294570
 ---------------------------------------------------------------------
                    Distance matrix (angstroms):
                    1          2          3          4          5
     1  N    0.000000
     2  B    1.413490   0.000000
     3  N    3.317309   2.980182   0.000000
     4  B    2.980389   2.084741   1.413211   0.000000
     5  H    4.179082   3.823883   1.009593   2.134874   0.000000
     6  H    2.270385   1.195161   3.949499   2.798889   4.797875
     7  H    2.253357   1.221866   2.579178   1.696250   3.178742
     8  H    1.008800   2.138206   3.091216   3.175710   3.826789
     9  H    1.009626   2.135121   4.179142   3.824100   5.085144
    10  H    3.090430   3.175007   1.008699   2.137937   1.693557
    11  H    2.578309   1.695265   2.253055   1.221940   3.167275
    12  H    3.949756   2.798869   2.270219   1.195096   2.582720
                    6          7          8          9         10
     6  H    0.000000
     7  H    2.057948   0.000000
     8  H    3.182060   2.556946   0.000000
     9  H    2.582752   3.167455   1.693829   0.000000
    10  H    4.202015   3.083199   2.715415   3.826270   0.000000
    11  H    2.099845   2.070027   3.083072   3.177943   2.556674
    12  H    3.215875   2.100688   4.202619   4.798064   3.181865
                   11         12
    11  H    0.000000
    12  H    2.058059   0.000000
 Stoichiometry    B2H8N2
 Framework group  C1[X(B2H8N2)]
 Deg. of freedom    30
 Full point group                 C1      NOp   1
 Largest Abelian subgroup         C1      NOp   1
 Largest concise Abelian subgroup C1      NOp   1
                         Standard orientation:                         
 ---------------------------------------------------------------------
 Center     Atomic      Atomic             Coordinates (Angstroms)
 Number     Number       Type             X           Y           Z
 ---------------------------------------------------------------------
      1          7           0        1.658408   -0.563049    0.030170
      2          5           0        1.035556    0.702783    0.117808
      3          7           0       -1.658349   -0.563083   -0.030338
      4          5           0       -1.035832    0.702616   -0.117770
      5          1           0       -2.488615   -0.725521    0.520616
      6          1           0        1.579860    1.682081   -0.298266
      7          1           0        0.218913    0.865795    1.011944
      8          1           0        1.278778   -1.394177    0.457703
      9          1           0        2.488743   -0.725201   -0.520824
     10          1           0       -1.278020   -1.394334   -0.456770
     11          1           0       -0.218428    0.865373   -1.011357
     12          1           0       -1.580264    1.681917    0.297942
 ---------------------------------------------------------------------
 Rotational constants (GHZ):          14.2603379           4.0401410           3.2918275
 Standard basis: 6-31G(d,p) (6D, 7F)
 There are   100 symmetry adapted cartesian basis functions of A   symmetry.
 There are   100 symmetry adapted basis functions of A   symmetry.
   100 basis functions,   168 primitive gaussians,   100 cartesian basis functions
    16 alpha electrons       16 beta electrons
       nuclear repulsion energy       110.0037976885 Hartrees.
 NAtoms=   12 NActive=   12 NUniq=   12 SFac= 1.00D+00 NAtFMM=   60 NAOKFM=F Big=F
 Integral buffers will be    131072 words long.
 Raffenetti 2 integral format.
 Two-electron integral symmetry is turned on.
 One-electron integrals computed using PRISM.
 NBasis=   100 RedAO= T EigKep=  6.56D-03  NBF=   100
 NBsUse=   100 1.00D-06 EigRej= -1.00D+00 NBFU=   100
 ExpMin= 1.27D-01 ExpMax= 4.17D+03 ExpMxC= 6.27D+02 IAcc=3 IRadAn=         5 AccDes= 0.00D+00
 Harris functional with IExCor=  402 and IRadAn=       5 diagonalized for initial guess.
 HarFok:  IExCor=  402 AccDes= 0.00D+00 IRadAn=         5 IDoV= 1 UseB2=F ITyADJ=14
 ICtDFT=  3500011 ScaDFX=  1.000000  1.000000  1.000000  1.000000
 FoFCou: FMM=F IPFlag=           0 FMFlag=      100000 FMFlg1=           0
         NFxFlg=           0 DoJE=T BraDBF=F KetDBF=T FulRan=T
         wScrn=  0.000000 ICntrl=       500 IOpCl=  0 I1Cent=   200000004 NGrid=           0
         NMat0=    1 NMatS0=      1 NMatT0=    0 NMatD0=    1 NMtDS0=    0 NMtDT0=    0
 Petite list used in FoFCou.
 Initial guess <Sx>= 0.0000 <Sy>= 0.0000 <Sz>= 0.0000 <S**2>= 0.0000 S= 0.0000
 Keep R1 and R2 ints in memory in canonical form, NReq=29209870.
 Requested convergence on RMS density matrix=1.00D-08 within1024 cycles.
 Requested convergence on MAX density matrix=1.00D-06.
 Requested convergence on             energy=1.00D-06.
 No special actions if energy rises.
 Integral accuracy reduced to 1.0D-05 until final iterations.
 Initial convergence to 1.0D-05 achieved.  Increase integral accuracy.
 SCF Done:  E(UB3LYP) =  -164.078788111     A.U. after   11 cycles
            NFock= 11  Conv=0.86D-08     -V/T= 2.0099
 <Sx>= 0.0000 <Sy>= 0.0000 <Sz>= 0.0000 <S**2>=-0.0000 S=-0.0000
 <L.S>= 0.000000000000E+00
 Annihilation of the first spin contaminant:
 S**2 before annihilation    -0.0000,   after     0.0000

 **********************************************************************

            Population analysis using the SCF density.

 **********************************************************************

 Orbital symmetries:
 Alpha Orbitals:
       Occupied  (A) (A) (A) (A) (A) (A) (A) (A) (A) (A) (A) (A)
                 (A) (A) (A) (A)
       Virtual   (A) (A) (A) (A) (A) (A) (A) (A) (A) (A) (A) (A)
                 (A) (A) (A) (A) (A) (A) (A) (A) (A) (A) (A) (A)
                 (A) (A) (A) (A) (A) (A) (A) (A) (A) (A) (A) (A)
                 (A) (A) (A) (A) (A) (A) (A) (A) (A) (A) (A) (A)
                 (A) (A) (A) (A) (A) (A) (A) (A) (A) (A) (A) (A)
                 (A) (A) (A) (A) (A) (A) (A) (A) (A) (A) (A) (A)
                 (A) (A) (A) (A) (A) (A) (A) (A) (A) (A) (A) (A)
 Beta  Orbitals:
       Occupied  (A) (A) (A) (A) (A) (A) (A) (A) (A) (A) (A) (A)
                 (A) (A) (A) (A)
       Virtual   (A) (A) (A) (A) (A) (A) (A) (A) (A) (A) (A) (A)
                 (A) (A) (A) (A) (A) (A) (A) (A) (A) (A) (A) (A)
                 (A) (A) (A) (A) (A) (A) (A) (A) (A) (A) (A) (A)
                 (A) (A) (A) (A) (A) (A) (A) (A) (A) (A) (A) (A)
                 (A) (A) (A) (A) (A) (A) (A) (A) (A) (A) (A) (A)
                 (A) (A) (A) (A) (A) (A) (A) (A) (A) (A) (A) (A)
                 (A) (A) (A) (A) (A) (A) (A) (A) (A) (A) (A) (A)
 The electronic state is 1-A.
 Alpha  occ. eigenvalues --  -14.31572 -14.31565  -6.74196  -6.74190  -0.85263
 Alpha  occ. eigenvalues --   -0.84536  -0.57129  -0.49968  -0.49552  -0.48450
 Alpha  occ. eigenvalues --   -0.42690  -0.35977  -0.34701  -0.32555  -0.27429
 Alpha  occ. eigenvalues --   -0.23995
 Alpha virt. eigenvalues --    0.01829   0.06568   0.10789   0.13113   0.14179
 Alpha virt. eigenvalues --    0.16727   0.16850   0.20876   0.22122   0.23739
 Alpha virt. eigenvalues --    0.27979   0.32818   0.43402   0.45823   0.45841
 Alpha virt. eigenvalues --    0.47424   0.54999   0.57000   0.66458   0.68869
 Alpha virt. eigenvalues --    0.73237   0.73512   0.78688   0.80814   0.82382
 Alpha virt. eigenvalues --    0.84763   0.88782   0.89762   0.91009   0.92186
 Alpha virt. eigenvalues --    0.95102   0.95699   1.12582   1.14236   1.17813
 Alpha virt. eigenvalues --    1.20096   1.22825   1.32065   1.42752   1.46857
 Alpha virt. eigenvalues --    1.49694   1.50513   1.52661   1.67849   1.68881
 Alpha virt. eigenvalues --    1.73660   1.77145   1.80638   2.03108   2.07342
 Alpha virt. eigenvalues --    2.08509   2.08541   2.15190   2.17586   2.25582
 Alpha virt. eigenvalues --    2.26193   2.33774   2.35397   2.43441   2.45267
 Alpha virt. eigenvalues --    2.49277   2.53967   2.57772   2.59241   2.63710
 Alpha virt. eigenvalues --    2.64319   2.66131   2.66385   2.71837   2.74262
 Alpha virt. eigenvalues --    2.94986   2.95776   3.06317   3.10123   3.21924
 Alpha virt. eigenvalues --    3.23709   3.28998   3.30756   3.55773   3.62656
 Alpha virt. eigenvalues --    3.62685   3.73303   4.17313   4.25464
  Beta  occ. eigenvalues --  -14.31572 -14.31565  -6.74196  -6.74190  -0.85263
  Beta  occ. eigenvalues --   -0.84536  -0.57129  -0.49968  -0.49552  -0.48450
  Beta  occ. eigenvalues --   -0.42690  -0.35977  -0.34701  -0.32555  -0.27429
  Beta  occ. eigenvalues --   -0.23995
  Beta virt. eigenvalues --    0.01829   0.06568   0.10789   0.13113   0.14179
  Beta virt. eigenvalues --    0.16727   0.16850   0.20876   0.22122   0.23739
  Beta virt. eigenvalues --    0.27979   0.32818   0.43402   0.45823   0.45841
  Beta virt. eigenvalues --    0.47424   0.54999   0.57000   0.66458   0.68869
  Beta virt. eigenvalues --    0.73237   0.73512   0.78688   0.80814   0.82382
  Beta virt. eigenvalues --    0.84763   0.88782   0.89762   0.91009   0.92186
  Beta virt. eigenvalues --    0.95102   0.95699   1.12582   1.14236   1.17813
  Beta virt. eigenvalues --    1.20096   1.22825   1.32065   1.42752   1.46857
  Beta virt. eigenvalues --    1.49694   1.50513   1.52661   1.67849   1.68881
  Beta virt. eigenvalues --    1.73660   1.77145   1.80638   2.03108   2.07342
  Beta virt. eigenvalues --    2.08509   2.08541   2.15190   2.17586   2.25582
  Beta virt. eigenvalues --    2.26193   2.33774   2.35397   2.43441   2.45267
  Beta virt. eigenvalues --    2.49277   2.53967   2.57772   2.59241   2.63710
  Beta virt. eigenvalues --    2.64319   2.66131   2.66385   2.71837   2.74262
  Beta virt. eigenvalues --    2.94986   2.95776   3.06317   3.10123   3.21924
  Beta virt. eigenvalues --    3.23709   3.28998   3.30756   3.55773   3.62656
  Beta virt. eigenvalues --    3.62685   3.73303   4.17313   4.25464
          Condensed to atoms (all electrons):
               1          2          3          4          5          6
     1  N    6.468577   0.480111  -0.005442  -0.010967  -0.000043  -0.023775
     2  B    0.480111   3.543279  -0.010969   0.076491   0.000951   0.403306
     3  N   -0.005442  -0.010969   6.468135   0.480248   0.362139   0.001000
     4  B   -0.010967   0.076491   0.480248   3.543381  -0.034297  -0.015887
     5  H   -0.000043   0.000951   0.362139  -0.034297   0.450781  -0.000020
     6  H   -0.023775   0.403306   0.001000  -0.015887  -0.000020   0.732447
     7  H   -0.020833   0.351393  -0.024159   0.051613  -0.000563  -0.022131
     8  H    0.354572  -0.036821   0.004175  -0.002516  -0.000034   0.003785
     9  H    0.362135  -0.034291  -0.000043   0.000951  -0.000001  -0.003404
    10  H    0.004192  -0.002513   0.354586  -0.036827  -0.031171   0.000039
    11  H   -0.024201   0.051705  -0.020828   0.351285   0.003001  -0.005016
    12  H    0.001000  -0.015852  -0.023777   0.403304  -0.003407   0.000607
               7          8          9         10         11         12
     1  N   -0.020833   0.354572   0.362135   0.004192  -0.024201   0.001000
     2  B    0.351393  -0.036821  -0.034291  -0.002513   0.051705  -0.015852
     3  N   -0.024159   0.004175  -0.000043   0.354586  -0.020828  -0.023777
     4  B    0.051613  -0.002516   0.000951  -0.036827   0.351285   0.403304
     5  H   -0.000563  -0.000034  -0.000001  -0.031171   0.003001  -0.003407
     6  H   -0.022131   0.003785  -0.003404   0.000039  -0.005016   0.000607
     7  H    0.765040  -0.005022   0.002998   0.000621  -0.058608  -0.005005
     8  H   -0.005022   0.465798  -0.031160   0.001064   0.000622   0.000038
     9  H    0.002998  -0.031160   0.450781  -0.000034  -0.000562  -0.000020
    10  H    0.000621   0.001064  -0.000034   0.465737  -0.005030   0.003787
    11  H   -0.058608   0.000622  -0.000562  -0.005030   0.764994  -0.022138
    12  H   -0.005005   0.000038  -0.000020   0.003787  -0.022138   0.732337
          Atomic-Atomic Spin Densities.
               1          2          3          4          5          6
     1  N   -0.000000   0.000000   0.000000  -0.000000   0.000000   0.000000
     2  B    0.000000   0.000000  -0.000000  -0.000000  -0.000000   0.000000
     3  N    0.000000  -0.000000  -0.000000   0.000000   0.000000  -0.000000
     4  B   -0.000000  -0.000000   0.000000  -0.000000   0.000000  -0.000000
     5  H    0.000000  -0.000000   0.000000   0.000000  -0.000000  -0.000000
     6  H    0.000000   0.000000  -0.000000  -0.000000  -0.000000   0.000000
     7  H   -0.000000   0.000000   0.000000   0.000000   0.000000  -0.000000
     8  H   -0.000000  -0.000000   0.000000  -0.000000  -0.000000   0.000000
     9  H    0.000000  -0.000000   0.000000   0.000000  -0.000000  -0.000000
    10  H   -0.000000   0.000000   0.000000  -0.000000   0.000000   0.000000
    11  H    0.000000  -0.000000  -0.000000   0.000000  -0.000000   0.000000
    12  H   -0.000000  -0.000000   0.000000   0.000000  -0.000000   0.000000
               7          8          9         10         11         12
     1  N   -0.000000  -0.000000   0.000000  -0.000000   0.000000  -0.000000
     2  B    0.000000  -0.000000  -0.000000   0.000000  -0.000000  -0.000000
     3  N    0.000000   0.000000   0.000000   0.000000  -0.000000   0.000000
     4  B    0.000000  -0.000000   0.000000  -0.000000   0.000000   0.000000
     5  H    0.000000  -0.000000  -0.000000   0.000000  -0.000000  -0.000000
     6  H   -0.000000   0.000000  -0.000000   0.000000   0.000000   0.000000
     7  H   -0.000000  -0.000000   0.000000  -0.000000   0.000000   0.000000
     8  H   -0.000000  -0.000000  -0.000000   0.000000  -0.000000   0.000000
     9  H    0.000000  -0.000000   0.000000   0.000000  -0.000000  -0.000000
    10  H   -0.000000   0.000000   0.000000   0.000000   0.000000   0.000000
    11  H    0.000000  -0.000000  -0.000000   0.000000  -0.000000   0.000000
    12  H    0.000000   0.000000  -0.000000   0.000000   0.000000   0.000000
 Mulliken charges and spin densities:
               1          2
     1  N   -0.585328  -0.000000
     2  B    0.193210   0.000000
     3  N   -0.585068  -0.000000
     4  B    0.193221  -0.000000
     5  H    0.252663  -0.000000
     6  H   -0.070951   0.000000
     7  H   -0.035344  -0.000000
     8  H    0.245498  -0.000000
     9  H    0.252648   0.000000
    10  H    0.245550   0.000000
    11  H   -0.035224  -0.000000
    12  H   -0.070876   0.000000
 Sum of Mulliken charges =  -0.00000  -0.00000
 Mulliken charges and spin densities with hydrogens summed into heavy atoms:
               1          2
     1  N   -0.087181  -0.000000
     2  B    0.086915  -0.000000
     3  N   -0.086855  -0.000000
     4  B    0.087121  -0.000000
 Electronic spatial extent (au):  <R**2>=            396.4096
 Charge=              0.0000 electrons
 Dipole moment (field-independent basis, Debye):
    X=             -0.0021    Y=             -2.9629    Z=              0.0008  Tot=              2.9629
 Quadrupole moment (field-independent basis, Debye-Ang):
   XX=            -24.1446   YY=            -25.9435   ZZ=            -27.8289
   XY=             -0.0003   XZ=             -2.7867   YZ=             -0.0032
 Traceless Quadrupole moment (field-independent basis, Debye-Ang):
   XX=              1.8278   YY=              0.0288   ZZ=             -1.8565
   XY=             -0.0003   XZ=             -2.7867   YZ=             -0.0032
 Octapole moment (field-independent basis, Debye-Ang**2):
  XXX=             -0.0040  YYY=            -22.0247  ZZZ=             -0.0006  XYY=             -0.0048
  XXY=            -14.3847  XXZ=              0.0019  XZZ=              0.0013  YZZ=             -4.5687
  YYZ=              0.0031  XYZ=              1.2190
 Hexadecapole moment (field-independent basis, Debye-Ang**3):
 XXXX=           -310.3600 YYYY=           -137.2705 ZZZZ=            -45.8206 XXXY=             -0.0003
 XXXZ=            -29.6495 YYYX=             -0.0008 YYYZ=             -0.0062 ZZZX=             -3.1747
 ZZZY=             -0.0047 XXYY=            -78.0757 XXZZ=            -66.0568 YYZZ=            -30.4492
 XXYZ=             -0.0068 YYXZ=              1.2165 ZZXY=             -0.0035
 N-N= 1.100037976885D+02 E-N=-6.004056967591D+02  KE= 1.624703940387D+02
                          Isotropic Fermi Contact Couplings
        Atom                 a.u.       MegaHertz       Gauss      10(-4) cm-1
     1  N(14)             -0.00000      -0.00000      -0.00000      -0.00000
     2  B(11)             -0.00000      -0.00000      -0.00000      -0.00000
     3  N(14)              0.00000       0.00000       0.00000       0.00000
     4  B(11)             -0.00000      -0.00000      -0.00000      -0.00000
     5  H(1)              -0.00000      -0.00000      -0.00000      -0.00000
     6  H(1)              -0.00000      -0.00000      -0.00000      -0.00000
     7  H(1)              -0.00000      -0.00000      -0.00000      -0.00000
     8  H(1)              -0.00000      -0.00000      -0.00000      -0.00000
     9  H(1)               0.00000       0.00000       0.00000       0.00000
    10  H(1)              -0.00000      -0.00000      -0.00000      -0.00000
    11  H(1)               0.00000       0.00000       0.00000       0.00000
    12  H(1)              -0.00000      -0.00000      -0.00000      -0.00000
 --------------------------------------------------------
       Center         ----  Spin Dipole Couplings  ----
                      3XX-RR        3YY-RR        3ZZ-RR
 --------------------------------------------------------
     1   Atom        0.000000      0.000000      0.000000
     2   Atom        0.000000      0.000000      0.000000
     3   Atom        0.000000      0.000000      0.000000
     4   Atom        0.000000      0.000000      0.000000
     5   Atom        0.000000      0.000000      0.000000
     6   Atom        0.000000      0.000000      0.000000
     7   Atom        0.000000      0.000000      0.000000
     8   Atom        0.000000      0.000000      0.000000
     9   Atom        0.000000      0.000000      0.000000
    10   Atom        0.000000      0.000000      0.000000
    11   Atom        0.000000      0.000000      0.000000
    12   Atom        0.000000      0.000000      0.000000
 --------------------------------------------------------
                        XY            XZ            YZ
 --------------------------------------------------------
     1   Atom        0.000000      0.000000      0.000000
     2   Atom        0.000000      0.000000      0.000000
     3   Atom        0.000000      0.000000      0.000000
     4   Atom        0.000000      0.000000      0.000000
     5   Atom        0.000000      0.000000      0.000000
     6   Atom        0.000000      0.000000      0.000000
     7   Atom        0.000000      0.000000      0.000000
     8   Atom        0.000000      0.000000      0.000000
     9   Atom        0.000000      0.000000      0.000000
    10   Atom        0.000000      0.000000      0.000000
    11   Atom        0.000000      0.000000      0.000000
    12   Atom        0.000000      0.000000      0.000000
 --------------------------------------------------------


 ---------------------------------------------------------------------------------
              Anisotropic Spin Dipole Couplings in Principal Axis System
 ---------------------------------------------------------------------------------

       Atom             a.u.   MegaHertz   Gauss  10(-4) cm-1        Axes

              Baa     0.0000     0.000     0.000     0.000  1.0000  0.0000  0.0000
     1 N(14)  Bbb     0.0000     0.000     0.000     0.000 -0.0000  1.0000  0.0000
              Bcc     0.0000     0.000     0.000     0.000  0.0000  0.0000  1.0000
 
              Baa     0.0000     0.000     0.000     0.000  1.0000  0.0000  0.0000
     2 B(11)  Bbb     0.0000     0.000     0.000     0.000 -0.0000  1.0000  0.0000
              Bcc     0.0000     0.000     0.000     0.000  0.0000  0.0000  1.0000
 
              Baa     0.0000     0.000     0.000     0.000  1.0000  0.0000  0.0000
     3 N(14)  Bbb     0.0000     0.000     0.000     0.000 -0.0000  1.0000  0.0000
              Bcc     0.0000     0.000     0.000     0.000  0.0000  0.0000  1.0000
 
              Baa     0.0000     0.000     0.000     0.000  1.0000  0.0000  0.0000
     4 B(11)  Bbb     0.0000     0.000     0.000     0.000 -0.0000  1.0000  0.0000
              Bcc     0.0000     0.000     0.000     0.000  0.0000  0.0000  1.0000
 
              Baa     0.0000     0.000     0.000     0.000  1.0000  0.0000  0.0000
     5 H(1)   Bbb     0.0000     0.000     0.000     0.000 -0.0000  1.0000  0.0000
              Bcc     0.0000     0.000     0.000     0.000  0.0000  0.0000  1.0000
 
              Baa     0.0000     0.000     0.000     0.000  1.0000  0.0000  0.0000
     6 H(1)   Bbb     0.0000     0.000     0.000     0.000 -0.0000  1.0000  0.0000
              Bcc     0.0000     0.000     0.000     0.000  0.0000  0.0000  1.0000
 
              Baa     0.0000     0.000     0.000     0.000  1.0000  0.0000  0.0000
     7 H(1)   Bbb     0.0000     0.000     0.000     0.000 -0.0000  1.0000  0.0000
              Bcc     0.0000     0.000     0.000     0.000  0.0000  0.0000  1.0000
 
              Baa     0.0000     0.000     0.000     0.000  1.0000  0.0000  0.0000
     8 H(1)   Bbb     0.0000     0.000     0.000     0.000 -0.0000  1.0000  0.0000
              Bcc     0.0000     0.000     0.000     0.000  0.0000  0.0000  1.0000
 
              Baa     0.0000     0.000     0.000     0.000  1.0000  0.0000  0.0000
     9 H(1)   Bbb     0.0000     0.000     0.000     0.000 -0.0000  1.0000  0.0000
              Bcc     0.0000     0.000     0.000     0.000  0.0000  0.0000  1.0000
 
              Baa     0.0000     0.000     0.000     0.000  1.0000  0.0000  0.0000
    10 H(1)   Bbb     0.0000     0.000     0.000     0.000 -0.0000  1.0000  0.0000
              Bcc     0.0000     0.000     0.000     0.000  0.0000  0.0000  1.0000
 
              Baa     0.0000     0.000     0.000     0.000  1.0000  0.0000  0.0000
    11 H(1)   Bbb     0.0000     0.000     0.000     0.000 -0.0000  1.0000  0.0000
              Bcc     0.0000     0.000     0.000     0.000  0.0000  0.0000  1.0000
 
              Baa     0.0000     0.000     0.000     0.000  1.0000  0.0000  0.0000
    12 H(1)   Bbb     0.0000     0.000     0.000     0.000 -0.0000  1.0000  0.0000
              Bcc     0.0000     0.000     0.000     0.000  0.0000  0.0000  1.0000
 

 ---------------------------------------------------------------------------------

 Calling FoFJK, ICntrl=      2127 FMM=F ISym2X=0 I1Cent= 0 IOpClX= 1 NMat=1 NMatS=1 NMatT=0.
 ***** Axes restored to original set *****
 -------------------------------------------------------------------
 Center     Atomic                   Forces (Hartrees/Bohr)
 Number     Number              X              Y              Z
 -------------------------------------------------------------------
      1        7          -0.001617780   -0.000183212    0.000858217
      2        5          -0.005297229    0.000480472   -0.000276026
      3        7           0.001709154   -0.000256532   -0.000916836
      4        5           0.005199380    0.000579292    0.000313418
      5        1          -0.002101492    0.000059121    0.001300938
      6        1           0.000399250   -0.000988047   -0.000383313
      7        1          -0.000245403    0.000272166   -0.001038961
      8        1          -0.000647819    0.000372802    0.000407774
      9        1           0.002138813    0.000044681   -0.001324143
     10        1           0.000590628    0.000305443   -0.000349506
     11        1           0.000264660    0.000284154    0.001031215
     12        1          -0.000392164   -0.000970341    0.000377222
 -------------------------------------------------------------------
 Cartesian Forces:  Max     0.005297229 RMS     0.001506739

 GradGradGradGradGradGradGradGradGradGradGradGradGradGradGradGradGradGrad
 Berny optimization.
 FormGI is forming the generalized inverse of G from B-inverse, IUseBI=4.
 Internal  Forces:  Max     0.002541632 RMS     0.000900335
 Search for a local minimum.
 Step number   1 out of a maximum of   66
 All quantities printed in internal units (Hartrees-Bohrs-Radians)
 Mixed Optimization -- En-DIIS/RFO-DIIS
 Second derivative matrix not updated -- first step.
 ITU=  0
     Eigenvalues ---    0.00317   0.02043   0.02046   0.02054   0.02058
     Eigenvalues ---    0.04289   0.04291   0.05972   0.07148   0.07702
     Eigenvalues ---    0.08408   0.09320   0.09562   0.11864   0.12080
     Eigenvalues ---    0.16000   0.16000   0.16000   0.16000   0.16503
     Eigenvalues ---    0.21646   0.22978   0.25022   0.25027   0.43456
     Eigenvalues ---    0.43499   0.46035   0.46041   0.46174   0.46191
 RFO step:  Lambda=-3.33980633D-04 EMin= 3.16767298D-03
 Linear search not attempted -- first point.
 Iteration  1 RMS(Cart)=  0.03069049 RMS(Int)=  0.00017484
 Iteration  2 RMS(Cart)=  0.00026876 RMS(Int)=  0.00005347
 Iteration  3 RMS(Cart)=  0.00000001 RMS(Int)=  0.00005347
 Variable       Old X    -DE/DX   Delta X   Delta X   Delta X     New X
                                 (Linear)    (Quad)   (Total)
    R1        2.67111  -0.00016   0.00000  -0.00036  -0.00036   2.67075
    R2        1.90636  -0.00072   0.00000  -0.00157  -0.00157   1.90479
    R3        1.90792  -0.00249   0.00000  -0.00540  -0.00540   1.90251
    R4        2.25853  -0.00112   0.00000  -0.00449  -0.00449   2.25404
    R5        2.30899   0.00174   0.00000   0.00744   0.00743   2.31642
    R6        3.20359   0.00254   0.00000   0.03404   0.03404   3.23763
    R7        2.67058  -0.00001   0.00000  -0.00003  -0.00003   2.67056
    R8        1.90785  -0.00245   0.00000  -0.00531  -0.00531   1.90254
    R9        1.90616  -0.00062   0.00000  -0.00135  -0.00135   1.90482
   R10        3.20545   0.00254   0.00000   0.03399   0.03400   3.23945
   R11        2.30913   0.00173   0.00000   0.00739   0.00738   2.31651
   R12        2.25840  -0.00110   0.00000  -0.00441  -0.00441   2.25400
    A1        2.14804   0.00035   0.00000   0.00217   0.00217   2.15021
    A2        2.14131   0.00014   0.00000   0.00086   0.00086   2.14217
    A3        1.99156  -0.00049   0.00000  -0.00311  -0.00311   1.98845
    A4        2.10775  -0.00038   0.00000  -0.00149  -0.00151   2.10625
    A5        2.04807   0.00049   0.00000   0.00160   0.00160   2.04967
    A6        1.95039   0.00064   0.00000   0.00271   0.00279   1.95318
    A7        2.03737   0.00003   0.00000   0.00085   0.00087   2.03824
    A8        1.59721   0.00023   0.00000   0.00029   0.00028   1.59748
    A9        1.55103  -0.00125   0.00000  -0.00522  -0.00533   1.54571
   A10        2.14137   0.00014   0.00000   0.00082   0.00082   2.14220
   A11        2.14816   0.00033   0.00000   0.00203   0.00203   2.15019
   A12        1.99127  -0.00046   0.00000  -0.00291  -0.00291   1.98835
   A13        1.95067   0.00063   0.00000   0.00267   0.00276   1.95342
   A14        2.04789   0.00050   0.00000   0.00171   0.00171   2.04961
   A15        2.10797  -0.00038   0.00000  -0.00153  -0.00155   2.10642
   A16        1.55020  -0.00125   0.00000  -0.00518  -0.00529   1.54491
   A17        1.59728   0.00023   0.00000   0.00027   0.00026   1.59754
   A18        2.03753   0.00003   0.00000   0.00077   0.00080   2.03833
   A19        1.56499   0.00126   0.00000   0.01069   0.01049   1.57547
   A20        1.56575   0.00126   0.00000   0.01069   0.01048   1.57623
    D1        3.02145  -0.00010   0.00000  -0.00175  -0.00175   3.01970
    D2        0.33723  -0.00047   0.00000  -0.00427  -0.00431   0.33292
    D3       -1.41695   0.00044   0.00000  -0.00026  -0.00022  -1.41718
    D4       -0.19700  -0.00013   0.00000  -0.00317  -0.00316  -0.20016
    D5       -2.88121  -0.00050   0.00000  -0.00569  -0.00573  -2.88694
    D6        1.64779   0.00041   0.00000  -0.00168  -0.00164   1.64615
    D7       -1.79927  -0.00016   0.00000  -0.02135  -0.02131  -1.82058
    D8        1.78113  -0.00040   0.00000  -0.02314  -0.02314   1.75799
    D9        0.19071  -0.00003   0.00000  -0.02083  -0.02075   0.16996
   D10        1.81292   0.00014   0.00000   0.02737   0.02740   1.84033
   D11       -2.30332   0.00002   0.00000   0.02667   0.02670  -2.27662
   D12       -0.26627   0.00003   0.00000   0.02741   0.02747  -0.23879
   D13        1.64774   0.00041   0.00000  -0.00160  -0.00156   1.64618
   D14       -2.88222  -0.00050   0.00000  -0.00552  -0.00556  -2.88778
   D15       -0.19748  -0.00013   0.00000  -0.00301  -0.00301  -0.20048
   D16       -1.41537   0.00044   0.00000  -0.00042  -0.00038  -1.41575
   D17        0.33786  -0.00047   0.00000  -0.00435  -0.00439   0.33347
   D18        3.02260  -0.00010   0.00000  -0.00183  -0.00183   3.02077
   D19        1.81257   0.00014   0.00000   0.02749   0.02751   1.84008
   D20       -0.26611   0.00003   0.00000   0.02739   0.02745  -0.23866
   D21       -2.30331   0.00003   0.00000   0.02672   0.02675  -2.27656
   D22       -1.79910  -0.00016   0.00000  -0.02135  -0.02131  -1.82041
   D23        0.19070  -0.00003   0.00000  -0.02082  -0.02074   0.16996
   D24        1.78078  -0.00040   0.00000  -0.02314  -0.02313   1.75765
         Item               Value     Threshold  Converged?
 Maximum Force            0.002542     0.000450     NO 
 RMS     Force            0.000900     0.000300     NO 
 Maximum Displacement     0.106127     0.001800     NO 
 RMS     Displacement     0.030550     0.001200     NO 
 Predicted change in Energy=-1.694864D-04
 GradGradGradGradGradGradGradGradGradGradGradGradGradGradGradGradGradGrad

                          Input orientation:                          
 ---------------------------------------------------------------------
 Center     Atomic      Atomic             Coordinates (Angstroms)
 Number     Number       Type             X           Y           Z
 ---------------------------------------------------------------------
      1          7           0       -1.695761   -0.557840   -0.034690
      2          5           0       -1.048647    0.695436   -0.123880
      3          7           0        1.695756   -0.558015    0.034794
      4          5           0        1.048848    0.695263    0.123858
      5          1           0        2.526430   -0.704127   -0.514971
      6          1           0       -1.575370    1.683040    0.288357
      7          1           0       -0.222079    0.842022   -1.017119
      8          1           0       -1.333960   -1.397251   -0.459537
      9          1           0       -2.526403   -0.703783    0.515142
     10          1           0        1.333196   -1.397596    0.458690
     11          1           0        0.221558    0.841644    1.016529
     12          1           0        1.575692    1.682919   -0.288033
 ---------------------------------------------------------------------
                    Distance matrix (angstroms):
                    1          2          3          4          5
     1  N    0.000000
     2  B    1.413298   0.000000
     3  N    3.392229   3.021268   0.000000
     4  B    3.021305   2.112074   1.413197   0.000000
     5  H    4.251937   3.859132   1.006782   2.132989   0.000000
     6  H    2.267244   1.192786   3.973271   2.808787   4.813384
     7  H    2.257547   1.225797   2.597058   1.714241   3.193279
     8  H    1.007971   2.138552   3.182430   3.224397   3.922513
     9  H    1.006767   2.133055   4.251895   3.859126   5.156768
    10  H    3.181697   3.223871   1.007986   2.138463   1.689001
    11  H    2.596099   1.713280   2.257455   1.225845   3.169753
    12  H    3.973360   2.808776   2.267248   1.192763   2.579416
                    6          7          8          9         10
     6  H    0.000000
     7  H    2.059849   0.000000
     8  H    3.178964   2.561546   0.000000
     9  H    2.579306   3.169739   1.689028   0.000000
    10  H    4.240175   3.100448   2.820791   3.921870   0.000000
    11  H    2.113560   2.081475   3.100170   3.192338   2.561468
    12  H    3.203345   2.114392   4.240629   4.813379   3.178989
                   11         12
    11  H    0.000000
    12  H    2.059928   0.000000
 Stoichiometry    B2H8N2
 Framework group  C1[X(B2H8N2)]
 Deg. of freedom    30
 Full point group                 C1      NOp   1
 Largest Abelian subgroup         C1      NOp   1
 Largest concise Abelian subgroup C1      NOp   1
                         Standard orientation:                         
 ---------------------------------------------------------------------
 Center     Atomic      Atomic             Coordinates (Angstroms)
 Number     Number       Type             X           Y           Z
 ---------------------------------------------------------------------
      1          7           0        1.695863   -0.557598    0.027604
      2          5           0        1.049192    0.695711    0.119503
      3          7           0       -1.695915   -0.557593   -0.027739
      4          5           0       -1.049318    0.695651   -0.119488
      5          1           0       -2.524297   -0.703667    0.525483
      6          1           0        1.574244    1.683292   -0.294918
      7          1           0        0.226363    0.842332    1.016182
      8          1           0        1.335792   -1.396993    0.453948
      9          1           0        2.524197   -0.703579   -0.525687
     10          1           0       -1.335169   -1.397190   -0.453150
     11          1           0       -0.225749    0.841997   -1.015599
     12          1           0       -1.574388    1.683331    0.294605
 ---------------------------------------------------------------------
 Rotational constants (GHZ):          14.4572807           3.8908981           3.2027736
 Standard basis: 6-31G(d,p) (6D, 7F)
 There are   100 symmetry adapted cartesian basis functions of A   symmetry.
 There are   100 symmetry adapted basis functions of A   symmetry.
   100 basis functions,   168 primitive gaussians,   100 cartesian basis functions
    16 alpha electrons       16 beta electrons
       nuclear repulsion energy       109.3713437089 Hartrees.
 NAtoms=   12 NActive=   12 NUniq=   12 SFac= 1.00D+00 NAtFMM=   60 NAOKFM=F Big=F
 Integral buffers will be    131072 words long.
 Raffenetti 2 integral format.
 Two-electron integral symmetry is turned on.
 One-electron integrals computed using PRISM.
 NBasis=   100 RedAO= T EigKep=  6.73D-03  NBF=   100
 NBsUse=   100 1.00D-06 EigRej= -1.00D+00 NBFU=   100
 Initial guess from the checkpoint file:  "/scratch/1311848/Gau-12489.chk"
 B after Tr=     0.000000    0.000000    0.000000
         Rot=    1.000000    0.000001   -0.000864    0.000020 Ang=   0.10 deg.
 Initial guess <Sx>= 0.0000 <Sy>= 0.0000 <Sz>= 0.0000 <S**2>=-0.0000 S=-0.0000
 ExpMin= 1.27D-01 ExpMax= 4.17D+03 ExpMxC= 6.27D+02 IAcc=2 IRadAn=         4 AccDes= 0.00D+00
 Harris functional with IExCor=  402 and IRadAn=       4 diagonalized for initial guess.
 HarFok:  IExCor=  402 AccDes= 0.00D+00 IRadAn=         4 IDoV= 1 UseB2=F ITyADJ=14
 ICtDFT=  3500011 ScaDFX=  1.000000  1.000000  1.000000  1.000000
 FoFCou: FMM=F IPFlag=           0 FMFlag=      100000 FMFlg1=           0
         NFxFlg=           0 DoJE=T BraDBF=F KetDBF=T FulRan=T
         wScrn=  0.000000 ICntrl=       500 IOpCl=  0 I1Cent=   200000004 NGrid=           0
         NMat0=    1 NMatS0=      1 NMatT0=    0 NMatD0=    1 NMtDS0=    0 NMtDT0=    0
 Petite list used in FoFCou.
 Keep R1 and R2 ints in memory in canonical form, NReq=29209870.
 Requested convergence on RMS density matrix=1.00D-08 within1024 cycles.
 Requested convergence on MAX density matrix=1.00D-06.
 Requested convergence on             energy=1.00D-06.
 No special actions if energy rises.
 Integral accuracy reduced to 1.0D-05 until final iterations.
 Initial convergence to 1.0D-05 achieved.  Increase integral accuracy.
 SCF Done:  E(UB3LYP) =  -164.079040139     A.U. after   10 cycles
            NFock= 10  Conv=0.12D-08     -V/T= 2.0099
 <Sx>= 0.0000 <Sy>= 0.0000 <Sz>= 0.0000 <S**2>=-0.0000 S=-0.0000
 <L.S>= 0.000000000000E+00
 Annihilation of the first spin contaminant:
 S**2 before annihilation    -0.0000,   after     0.0000
 Calling FoFJK, ICntrl=      2127 FMM=F ISym2X=0 I1Cent= 0 IOpClX= 1 NMat=1 NMatS=1 NMatT=0.
 ***** Axes restored to original set *****
 -------------------------------------------------------------------
 Center     Atomic                   Forces (Hartrees/Bohr)
 Number     Number              X              Y              Z
 -------------------------------------------------------------------
      1        7           0.001133238    0.000983978   -0.000163807
      2        5          -0.003773212   -0.000364603   -0.003160135
      3        7          -0.001118644    0.000949010    0.000145025
      4        5           0.003737357   -0.000346406    0.003166094
      5        1           0.000014474   -0.000126921   -0.000342428
      6        1           0.000200216   -0.000134083    0.000353413
      7        1          -0.001490382   -0.000211842    0.000321048
      8        1          -0.000182582   -0.000142198    0.000000764
      9        1          -0.000018688   -0.000135221    0.000347251
     10        1           0.000180736   -0.000130977    0.000004073
     11        1           0.001514427   -0.000206771   -0.000318498
     12        1          -0.000196940   -0.000133965   -0.000352801
 -------------------------------------------------------------------
 Cartesian Forces:  Max     0.003773212 RMS     0.001274406

 GradGradGradGradGradGradGradGradGradGradGradGradGradGradGradGradGradGrad
 Berny optimization.
 Using GEDIIS/GDIIS optimizer.
 FormGI is forming the generalized inverse of G from B-inverse, IUseBI=4.
 Internal  Forces:  Max     0.002300690 RMS     0.000580887
 Search for a local minimum.
 Step number   2 out of a maximum of   66
 All quantities printed in internal units (Hartrees-Bohrs-Radians)
 Mixed Optimization -- En-DIIS/RFO-DIIS
 Swapping is turned off.
 Update second derivatives using D2CorX and points    1    2
 DE= -2.52D-04 DEPred=-1.69D-04 R= 1.49D+00
 TightC=F SS=  1.41D+00  RLast= 1.01D-01 DXNew= 5.0454D-01 3.0409D-01
 Trust test= 1.49D+00 RLast= 1.01D-01 DXMaxT set to 3.04D-01
 ITU=  1  0
     Eigenvalues ---    0.00363   0.01564   0.02044   0.02054   0.02058
     Eigenvalues ---    0.02320   0.04280   0.05004   0.05979   0.07443
     Eigenvalues ---    0.08384   0.09266   0.09605   0.11892   0.12089
     Eigenvalues ---    0.15794   0.16000   0.16000   0.16034   0.16224
     Eigenvalues ---    0.21740   0.24634   0.25024   0.28350   0.43334
     Eigenvalues ---    0.43496   0.46038   0.46167   0.46188   0.55891
 En-DIIS/RFO-DIIS/Sim-DIIS IScMMF=       -3 using points:     2    1
 RFO step:  Lambda=-8.12025067D-04.
 DidBck=F Rises=F RFO-DIIS coefs:    2.57639   -1.57639
 Iteration  1 RMS(Cart)=  0.03706086 RMS(Int)=  0.00042252
 Iteration  2 RMS(Cart)=  0.00033549 RMS(Int)=  0.00023177
 Iteration  3 RMS(Cart)=  0.00000019 RMS(Int)=  0.00023177
 Variable       Old X    -DE/DX   Delta X   Delta X   Delta X     New X
                                 (Linear)    (Quad)   (Total)
    R1        2.67075  -0.00104  -0.00057  -0.00516  -0.00573   2.66502
    R2        1.90479   0.00005  -0.00247  -0.00031  -0.00278   1.90200
    R3        1.90251   0.00022  -0.00852  -0.00088  -0.00940   1.89311
    R4        2.25404  -0.00008  -0.00708  -0.00223  -0.00930   2.24474
    R5        2.31642  -0.00071   0.01171  -0.00395   0.00769   2.32411
    R6        3.23763   0.00230   0.05367   0.07609   0.12980   3.36743
    R7        2.67056  -0.00102  -0.00004  -0.00495  -0.00499   2.66557
    R8        1.90254   0.00022  -0.00837  -0.00089  -0.00926   1.89328
    R9        1.90482   0.00005  -0.00212  -0.00027  -0.00239   1.90243
   R10        3.23945   0.00229   0.05359   0.07585   0.12949   3.36893
   R11        2.31651  -0.00072   0.01163  -0.00407   0.00750   2.32401
   R12        2.25400  -0.00008  -0.00695  -0.00219  -0.00914   2.24486
    A1        2.15021   0.00025   0.00343   0.00383   0.00724   2.15745
    A2        2.14217  -0.00010   0.00136  -0.00115   0.00019   2.14236
    A3        1.98845  -0.00016  -0.00490  -0.00340  -0.00833   1.98012
    A4        2.10625   0.00002  -0.00238   0.00429   0.00164   2.10789
    A5        2.04967   0.00021   0.00253   0.00332   0.00541   2.05508
    A6        1.95318  -0.00019   0.00440  -0.01128  -0.00647   1.94671
    A7        2.03824   0.00012   0.00137   0.00856   0.00978   2.04802
    A8        1.59748   0.00007   0.00044  -0.00638  -0.00603   1.59145
    A9        1.54571  -0.00067  -0.00840  -0.01779  -0.02642   1.51929
   A10        2.14220  -0.00010   0.00130  -0.00120   0.00008   2.14228
   A11        2.15019   0.00024   0.00320   0.00370   0.00688   2.15707
   A12        1.98835  -0.00015  -0.00460  -0.00320  -0.00782   1.98054
   A13        1.95342  -0.00020   0.00435  -0.01140  -0.00663   1.94679
   A14        2.04961   0.00021   0.00270   0.00340   0.00567   2.05528
   A15        2.10642   0.00001  -0.00244   0.00421   0.00150   2.10792
   A16        1.54491  -0.00067  -0.00833  -0.01765  -0.02621   1.51870
   A17        1.59754   0.00007   0.00041  -0.00634  -0.00603   1.59151
   A18        2.03833   0.00012   0.00126   0.00852   0.00963   2.04795
   A19        1.57547   0.00069   0.01653   0.01381   0.02989   1.60537
   A20        1.57623   0.00069   0.01653   0.01375   0.02983   1.60606
    D1        3.01970   0.00026  -0.00275   0.01400   0.01128   3.03098
    D2        0.33292  -0.00061  -0.00680  -0.02709  -0.03399   0.29892
    D3       -1.41718   0.00023  -0.00035  -0.00003  -0.00030  -1.41748
    D4       -0.20016   0.00015  -0.00499   0.00199  -0.00297  -0.20313
    D5       -2.88694  -0.00072  -0.00903  -0.03910  -0.04824  -2.93519
    D6        1.64615   0.00011  -0.00259  -0.01204  -0.01455   1.63160
    D7       -1.82058   0.00038  -0.03359   0.03621   0.00297  -1.81762
    D8        1.75799  -0.00042  -0.03647  -0.00221  -0.03864   1.71935
    D9        0.16996  -0.00017  -0.03271   0.01405  -0.01804   0.15192
   D10        1.84033  -0.00012   0.04320  -0.03257   0.01090   1.85123
   D11       -2.27662  -0.00012   0.04209  -0.03441   0.00782  -2.26880
   D12       -0.23879  -0.00001   0.04331  -0.02606   0.01761  -0.22119
   D13        1.64618   0.00011  -0.00246  -0.01189  -0.01426   1.63191
   D14       -2.88778  -0.00072  -0.00877  -0.03879  -0.04767  -2.93546
   D15       -0.20048   0.00015  -0.00474   0.00223  -0.00248  -0.20296
   D16       -1.41575   0.00023  -0.00061  -0.00040  -0.00093  -1.41668
   D17        0.33347  -0.00061  -0.00692  -0.02731  -0.03434   0.29914
   D18        3.02077   0.00026  -0.00289   0.01371   0.01086   3.03163
   D19        1.84008  -0.00011   0.04337  -0.03243   0.01122   1.85130
   D20       -0.23866  -0.00001   0.04327  -0.02606   0.01757  -0.22109
   D21       -2.27656  -0.00012   0.04217  -0.03438   0.00792  -2.26864
   D22       -1.82041   0.00039  -0.03359   0.03624   0.00301  -1.81740
   D23        0.16996  -0.00016  -0.03270   0.01406  -0.01802   0.15194
   D24        1.75765  -0.00042  -0.03646  -0.00210  -0.03852   1.71912
         Item               Value     Threshold  Converged?
 Maximum Force            0.002301     0.000450     NO 
 RMS     Force            0.000581     0.000300     NO 
 Maximum Displacement     0.118916     0.001800     NO 
 RMS     Displacement     0.037034     0.001200     NO 
 Predicted change in Energy=-4.261197D-04
 GradGradGradGradGradGradGradGradGradGradGradGradGradGradGradGradGradGrad

                          Input orientation:                          
 ---------------------------------------------------------------------
 Center     Atomic      Atomic             Coordinates (Angstroms)
 Number     Number       Type             X           Y           Z
 ---------------------------------------------------------------------
      1          7           0       -1.741802   -0.552285   -0.044291
      2          5           0       -1.090815    0.694768   -0.143944
      3          7           0        1.741861   -0.552761    0.044165
      4          5           0        1.090812    0.694576    0.143967
      5          1           0        2.554419   -0.695975   -0.524173
      6          1           0       -1.597575    1.680710    0.282823
      7          1           0       -0.246141    0.830767   -1.027463
      8          1           0       -1.396877   -1.396472   -0.470215
      9          1           0       -2.554095   -0.695660    0.524227
     10          1           0        1.396123   -1.397123    0.469611
     11          1           0        0.245620    0.830515    1.026922
     12          1           0        1.597731    1.680649   -0.282488
 ---------------------------------------------------------------------
                    Distance matrix (angstroms):
                    1          2          3          4          5
     1  N    0.000000
     2  B    1.410268   0.000000
     3  N    3.484786   3.100930   0.000000
     4  B    3.100613   2.200542   1.410558   0.000000
     5  H    4.325326   3.920009   1.001882   2.126544   0.000000
     6  H    2.261431   1.187863   4.024573   2.866909   4.851693
     7  H    2.261960   1.229868   2.648526   1.782762   3.229145
     8  H    1.006497   2.138553   3.290609   3.307309   4.013271
     9  H    1.001793   2.126248   4.325058   3.919528   5.214984
    10  H    3.290049   3.307162   1.006721   2.138799   1.679543
    11  H    2.647542   1.781969   2.262300   1.229812   3.172793
    12  H    4.024327   2.866955   2.261768   1.187927   2.573326
                    6          7          8          9         10
     6  H    0.000000
     7  H    2.065340   0.000000
     8  H    3.174334   2.568134   0.000000
     9  H    2.573002   3.172440   1.679049   0.000000
    10  H    4.297694   3.146706   2.946883   4.012388   0.000000
    11  H    2.161917   2.112422   3.146218   3.228052   2.568389
    12  H    3.244928   2.162672   4.297858   4.851318   3.174740
                   11         12
    11  H    0.000000
    12  H    2.065305   0.000000
 Stoichiometry    B2H8N2
 Framework group  C1[X(B2H8N2)]
 Deg. of freedom    30
 Full point group                 C1      NOp   1
 Largest Abelian subgroup         C1      NOp   1
 Largest concise Abelian subgroup C1      NOp   1
                         Standard orientation:                         
 ---------------------------------------------------------------------
 Center     Atomic      Atomic             Coordinates (Angstroms)
 Number     Number       Type             X           Y           Z
 ---------------------------------------------------------------------
      1          7           0        1.742115   -0.554072    0.023106
      2          5           0        1.092570    0.693072    0.130706
      3          7           0       -1.742364   -0.554024   -0.023133
      4          5           0       -1.092385    0.693220   -0.130751
      5          1           0       -2.547997   -0.697149    0.555001
      6          1           0        1.594269    1.678963   -0.302119
      7          1           0        0.258683    0.829149    1.024401
      8          1           0        1.402250   -1.398231    0.453134
      9          1           0        2.547439   -0.697537   -0.555220
     10          1           0       -1.401933   -1.398415   -0.452782
     11          1           0       -0.257934    0.829082   -1.023874
     12          1           0       -1.593953    1.679346    0.301867
 ---------------------------------------------------------------------
 Rotational constants (GHZ):          14.5036974           3.6804212           3.0667769
 Standard basis: 6-31G(d,p) (6D, 7F)
 There are   100 symmetry adapted cartesian basis functions of A   symmetry.
 There are   100 symmetry adapted basis functions of A   symmetry.
   100 basis functions,   168 primitive gaussians,   100 cartesian basis functions
    16 alpha electrons       16 beta electrons
       nuclear repulsion energy       108.2657800637 Hartrees.
 NAtoms=   12 NActive=   12 NUniq=   12 SFac= 1.00D+00 NAtFMM=   60 NAOKFM=F Big=F
 Integral buffers will be    131072 words long.
 Raffenetti 2 integral format.
 Two-electron integral symmetry is turned on.
 One-electron integrals computed using PRISM.
 NBasis=   100 RedAO= T EigKep=  7.26D-03  NBF=   100
 NBsUse=   100 1.00D-06 EigRej= -1.00D+00 NBFU=   100
 Initial guess from the checkpoint file:  "/scratch/1311848/Gau-12489.chk"
 B after Tr=    -0.000000   -0.000000    0.000000
         Rot=    0.999998   -0.000003   -0.002046    0.000036 Ang=  -0.23 deg.
 Initial guess <Sx>= 0.0000 <Sy>= 0.0000 <Sz>= 0.0000 <S**2>=-0.0000 S=-0.0000
 ExpMin= 1.27D-01 ExpMax= 4.17D+03 ExpMxC= 6.27D+02 IAcc=2 IRadAn=         4 AccDes= 0.00D+00
 Harris functional with IExCor=  402 and IRadAn=       4 diagonalized for initial guess.
 HarFok:  IExCor=  402 AccDes= 0.00D+00 IRadAn=         4 IDoV= 1 UseB2=F ITyADJ=14
 ICtDFT=  3500011 ScaDFX=  1.000000  1.000000  1.000000  1.000000
 FoFCou: FMM=F IPFlag=           0 FMFlag=      100000 FMFlg1=           0
         NFxFlg=           0 DoJE=T BraDBF=F KetDBF=T FulRan=T
         wScrn=  0.000000 ICntrl=       500 IOpCl=  0 I1Cent=   200000004 NGrid=           0
         NMat0=    1 NMatS0=      1 NMatT0=    0 NMatD0=    1 NMtDS0=    0 NMtDT0=    0
 Petite list used in FoFCou.
 Keep R1 and R2 ints in memory in canonical form, NReq=29209870.
 Requested convergence on RMS density matrix=1.00D-08 within1024 cycles.
 Requested convergence on MAX density matrix=1.00D-06.
 Requested convergence on             energy=1.00D-06.
 No special actions if energy rises.
 Integral accuracy reduced to 1.0D-05 until final iterations.
 Initial convergence to 1.0D-05 achieved.  Increase integral accuracy.
 SCF Done:  E(UB3LYP) =  -164.079854313     A.U. after   11 cycles
            NFock= 11  Conv=0.14D-08     -V/T= 2.0098
 <Sx>= 0.0000 <Sy>= 0.0000 <Sz>= 0.0000 <S**2>=-0.0000 S=-0.0000
 <L.S>= 0.000000000000E+00
 Annihilation of the first spin contaminant:
 S**2 before annihilation    -0.0000,   after    -0.0000
 Calling FoFJK, ICntrl=      2127 FMM=F ISym2X=0 I1Cent= 0 IOpClX= 1 NMat=1 NMatS=1 NMatT=0.
 ***** Axes restored to original set *****
 -------------------------------------------------------------------
 Center     Atomic                   Forces (Hartrees/Bohr)
 Number     Number              X              Y              Z
 -------------------------------------------------------------------
      1        7           0.004604826    0.002657278   -0.001531677
      2        5          -0.000647887   -0.002055469   -0.009406539
      3        7          -0.004764713    0.002736226    0.001606174
      4        5           0.000768622   -0.002214841    0.009327937
      5        1           0.004082954   -0.000387347   -0.003328251
      6        1          -0.000343781    0.001500209    0.002024968
      7        1          -0.004622159   -0.000859715    0.002372263
      8        1           0.000999844   -0.000875156   -0.001036612
      9        1          -0.004158953   -0.000373679    0.003386596
     10        1          -0.000896482   -0.000722317    0.000934099
     11        1           0.004639326   -0.000871367   -0.002338886
     12        1           0.000338403    0.001466179   -0.002010073
 -------------------------------------------------------------------
 Cartesian Forces:  Max     0.009406539 RMS     0.003245145

 GradGradGradGradGradGradGradGradGradGradGradGradGradGradGradGradGradGrad
 Berny optimization.
 Using GEDIIS/GDIIS optimizer.
 FormGI is forming the generalized inverse of G from B-inverse, IUseBI=4.
 Internal  Forces:  Max     0.005347576 RMS     0.001671232
 Search for a local minimum.
 Step number   3 out of a maximum of   66
 All quantities printed in internal units (Hartrees-Bohrs-Radians)
 Mixed Optimization -- RFO/linear search
 Update second derivatives using D2CorX and points    1    2    3
 DE= -8.14D-04 DEPred=-4.26D-04 R= 1.91D+00
 TightC=F SS=  1.41D+00  RLast= 2.24D-01 DXNew= 5.1141D-01 6.7217D-01
 Trust test= 1.91D+00 RLast= 2.24D-01 DXMaxT set to 5.11D-01
 ITU=  1  1  0
 Use linear search instead of GDIIS.
     Eigenvalues ---    0.00006   0.00407   0.02044   0.02059   0.02063
     Eigenvalues ---    0.02160   0.04184   0.05019   0.06145   0.07586
     Eigenvalues ---    0.08164   0.09310   0.09748   0.12069   0.12150
     Eigenvalues ---    0.15936   0.16000   0.16000   0.16163   0.16520
     Eigenvalues ---    0.21936   0.24624   0.25024   0.33879   0.43460
     Eigenvalues ---    0.43540   0.46038   0.46168   0.46188   5.95141
 RFO step:  Lambda=-4.48953183D-04 EMin= 5.73205949D-05
 Quartic linear search produced a step of  2.00000.
 Iteration  1 RMS(Cart)=  0.07336737 RMS(Int)=  0.06509190
 Iteration  2 RMS(Cart)=  0.04014400 RMS(Int)=  0.02717153
 Iteration  3 RMS(Cart)=  0.02936284 RMS(Int)=  0.00242890
 Iteration  4 RMS(Cart)=  0.00020594 RMS(Int)=  0.00242345
 Iteration  5 RMS(Cart)=  0.00000035 RMS(Int)=  0.00242345
 Variable       Old X    -DE/DX   Delta X   Delta X   Delta X     New X
                                 (Linear)    (Quad)   (Total)
    R1        2.66502  -0.00185  -0.01145  -0.01358  -0.02503   2.63999
    R2        1.90200   0.00152  -0.00557  -0.00540  -0.01097   1.89103
    R3        1.89311   0.00535  -0.01880  -0.01808  -0.03688   1.85623
    R4        2.24474   0.00212  -0.01861  -0.01821  -0.03681   2.20792
    R5        2.32411  -0.00502   0.01539   0.01152   0.02660   2.35071
    R6        3.36743   0.00294   0.25960   0.28646   0.54632   3.91375
    R7        2.66557  -0.00211  -0.00997  -0.01209  -0.02206   2.64351
    R8        1.89328   0.00525  -0.01852  -0.01782  -0.03634   1.85695
    R9        1.90243   0.00131  -0.00478  -0.00463  -0.00941   1.89302
   R10        3.36893   0.00291   0.25897   0.28573   0.54487   3.91380
   R11        2.32401  -0.00502   0.01499   0.01111   0.02573   2.34974
   R12        2.24486   0.00208  -0.01828  -0.01788  -0.03616   2.20870
    A1        2.15745  -0.00061   0.01447   0.01382   0.02799   2.18543
    A2        2.14236  -0.00015   0.00037   0.00107   0.00114   2.14350
    A3        1.98012   0.00076  -0.01666  -0.01629  -0.03326   1.94685
    A4        2.10789   0.00009   0.00328   0.00113  -0.00051   2.10737
    A5        2.05508   0.00009   0.01082   0.01313   0.01671   2.07179
    A6        1.94671  -0.00086  -0.01293  -0.01101  -0.02152   1.92519
    A7        2.04802   0.00037   0.01956   0.02139   0.03549   2.08351
    A8        1.59145  -0.00030  -0.01206  -0.01243  -0.02393   1.56752
    A9        1.51929  -0.00011  -0.05283  -0.06335  -0.11609   1.40320
   A10        2.14228  -0.00014   0.00016   0.00086   0.00075   2.14302
   A11        2.15707  -0.00058   0.01375   0.01309   0.02658   2.18365
   A12        1.98054   0.00071  -0.01563  -0.01527  -0.03117   1.94937
   A13        1.94679  -0.00086  -0.01326  -0.01138  -0.02208   1.92471
   A14        2.05528   0.00007   0.01134   0.01362   0.01773   2.07301
   A15        2.10792   0.00009   0.00300   0.00085  -0.00110   2.10682
   A16        1.51870  -0.00010  -0.05243  -0.06291  -0.11533   1.40336
   A17        1.59151  -0.00029  -0.01205  -0.01240  -0.02395   1.56756
   A18        2.04795   0.00038   0.01925   0.02110   0.03494   2.08289
   A19        1.60537   0.00015   0.05979   0.06255   0.12122   1.72659
   A20        1.60606   0.00014   0.05966   0.06238   0.12087   1.72693
    D1        3.03098   0.00077   0.02256   0.02839   0.05083   3.08181
    D2        0.29892  -0.00079  -0.06799  -0.07296  -0.14114   0.15778
    D3       -1.41748  -0.00019  -0.00061   0.00496   0.00463  -1.41285
    D4       -0.20313   0.00067  -0.00594   0.00774   0.00170  -0.20143
    D5       -2.93519  -0.00089  -0.09649  -0.09361  -0.19027  -3.12546
    D6        1.63160  -0.00029  -0.02911  -0.01569  -0.04450   1.58710
    D7       -1.81762   0.00061   0.00594   0.04217   0.05109  -1.76653
    D8        1.71935  -0.00083  -0.07729  -0.05094  -0.12975   1.58960
    D9        0.15192  -0.00042  -0.03607  -0.00302  -0.03391   0.11801
   D10        1.85123  -0.00015   0.02180  -0.02776  -0.00344   1.84779
   D11       -2.26880  -0.00045   0.01563  -0.03578  -0.02077  -2.28957
   D12       -0.22119  -0.00006   0.03521  -0.01357   0.02378  -0.19740
   D13        1.63191  -0.00029  -0.02853  -0.01538  -0.04353   1.58838
   D14       -2.93546  -0.00089  -0.09535  -0.09275  -0.18834  -3.12380
   D15       -0.20296   0.00067  -0.00496   0.00844   0.00337  -0.19959
   D16       -1.41668  -0.00019  -0.00185   0.00392   0.00243  -1.41425
   D17        0.29914  -0.00079  -0.06867  -0.07344  -0.14238   0.15676
   D18        3.03163   0.00077   0.02172   0.02774   0.04934   3.08097
   D19        1.85130  -0.00016   0.02244  -0.02712  -0.00215   1.84915
   D20       -0.22109  -0.00006   0.03515  -0.01361   0.02370  -0.19738
   D21       -2.26864  -0.00046   0.01585  -0.03556  -0.02026  -2.28890
   D22       -1.81740   0.00061   0.00602   0.04230   0.05138  -1.76601
   D23        0.15194  -0.00042  -0.03604  -0.00299  -0.03387   0.11807
   D24        1.71912  -0.00083  -0.07704  -0.05064  -0.12919   1.58993
         Item               Value     Threshold  Converged?
 Maximum Force            0.005348     0.000450     NO 
 RMS     Force            0.001671     0.000300     NO 
 Maximum Displacement     0.378894     0.001800     NO 
 RMS     Displacement     0.135149     0.001200     NO 
 Predicted change in Energy=-3.352324D-03
 GradGradGradGradGradGradGradGradGradGradGradGradGradGradGradGradGradGrad

                          Input orientation:                          
 ---------------------------------------------------------------------
 Center     Atomic      Atomic             Coordinates (Angstroms)
 Number     Number       Type             X           Y           Z
 ---------------------------------------------------------------------
      1          7           0       -1.898681   -0.537757   -0.083383
      2          5           0       -1.269976    0.702596   -0.217257
      3          7           0        1.898987   -0.539407    0.082437
      4          5           0        1.269179    0.702356    0.217512
      5          1           0        2.633990   -0.697227   -0.550390
      6          1           0       -1.723462    1.658642    0.278165
      7          1           0       -0.359472    0.823471   -1.056165
      8          1           0       -1.597242   -1.387375   -0.517740
      9          1           0       -2.632600   -0.696947    0.549774
     10          1           0        1.596625   -1.389263    0.518105
     11          1           0        0.359012    0.823802    1.055938
     12          1           0        1.722899    1.658821   -0.277856
 ---------------------------------------------------------------------
                    Distance matrix (angstroms):
                    1          2          3          4          5
     1  N    0.000000
     2  B    1.397021   0.000000
     3  N    3.801286   3.416828   0.000000
     4  B    3.415223   2.576108   1.398884   0.000000
     5  H    4.559455   4.160701   0.982654   2.100290   0.000000
     6  H    2.232843   1.168383   4.241682   3.142302   5.022352
     7  H    2.273413   1.243943   2.873062   2.071092   3.395459
     8  H    1.000691   2.136673   3.647311   3.622697   4.287271
     9  H    0.982276   2.098524   4.558344   4.158404   5.380272
    10  H    3.647466   3.624090   1.001740   2.138327   1.642170
    11  H    2.872120   2.071067   2.275426   1.243427   3.173223
    12  H    4.240119   3.142505   2.234507   1.168793   2.540733
                    6          7          8          9         10
     6  H    0.000000
     7  H    2.082887   0.000000
     8  H    3.150813   2.590331   0.000000
     9  H    2.539509   3.171407   1.639586   0.000000
    10  H    4.513344   3.346764   3.357642   4.285632   0.000000
    11  H    2.374572   2.230964   3.345549   3.393910   2.592027
    12  H    3.490926   2.374835   4.512227   5.020456   3.152826
                   11         12
    11  H    0.000000
    12  H    2.082415   0.000000
 Stoichiometry    B2H8N2
 Framework group  C1[X(B2H8N2)]
 Deg. of freedom    30
 Full point group                 C1      NOp   1
 Largest Abelian subgroup         C1      NOp   1
 Largest concise Abelian subgroup C1      NOp   1
                         Standard orientation:                         
 ---------------------------------------------------------------------
 Center     Atomic      Atomic             Coordinates (Angstroms)
 Number     Number       Type             X           Y           Z
 ---------------------------------------------------------------------
      1          7           0        1.900179   -0.547317    0.006917
      2          5           0        1.277902    0.693275    0.166198
      3          7           0       -1.901083   -0.547255   -0.006581
      4          5           0       -1.276636    0.694268   -0.166467
      5          1           0       -2.610207   -0.704927    0.655153
      6          1           0        1.711600    1.649259   -0.346754
      7          1           0        0.401802    0.814318    1.040951
      8          1           0        1.616007   -1.396922    0.452786
      9          1           0        2.608064   -0.706655   -0.655184
     10          1           0       -1.616805   -1.397124   -0.454234
     11          1           0       -0.400746    0.815545   -1.040663
     12          1           0       -1.709711    1.650795    0.346932
 ---------------------------------------------------------------------
 Rotational constants (GHZ):          14.4342611           3.0331542           2.6173016
 Standard basis: 6-31G(d,p) (6D, 7F)
 There are   100 symmetry adapted cartesian basis functions of A   symmetry.
 There are   100 symmetry adapted basis functions of A   symmetry.
   100 basis functions,   168 primitive gaussians,   100 cartesian basis functions
    16 alpha electrons       16 beta electrons
       nuclear repulsion energy       104.6040800281 Hartrees.
 NAtoms=   12 NActive=   12 NUniq=   12 SFac= 1.00D+00 NAtFMM=   60 NAOKFM=F Big=F
 Integral buffers will be    131072 words long.
 Raffenetti 2 integral format.
 Two-electron integral symmetry is turned on.
 One-electron integrals computed using PRISM.
 NBasis=   100 RedAO= T EigKep=  9.05D-03  NBF=   100
 NBsUse=   100 1.00D-06 EigRej= -1.00D+00 NBFU=   100
 Initial guess from the checkpoint file:  "/scratch/1311848/Gau-12489.chk"
 B after Tr=    -0.000000   -0.000000   -0.000000
         Rot=    0.999973   -0.000032   -0.007395    0.000105 Ang=  -0.85 deg.
 Initial guess <Sx>= 0.0000 <Sy>= 0.0000 <Sz>= 0.0000 <S**2>= 0.0000 S= 0.0000
 ExpMin= 1.27D-01 ExpMax= 4.17D+03 ExpMxC= 6.27D+02 IAcc=2 IRadAn=         4 AccDes= 0.00D+00
 Harris functional with IExCor=  402 and IRadAn=       4 diagonalized for initial guess.
 HarFok:  IExCor=  402 AccDes= 0.00D+00 IRadAn=         4 IDoV= 1 UseB2=F ITyADJ=14
 ICtDFT=  3500011 ScaDFX=  1.000000  1.000000  1.000000  1.000000
 FoFCou: FMM=F IPFlag=           0 FMFlag=      100000 FMFlg1=           0
         NFxFlg=           0 DoJE=T BraDBF=F KetDBF=T FulRan=T
         wScrn=  0.000000 ICntrl=       500 IOpCl=  0 I1Cent=   200000004 NGrid=           0
         NMat0=    1 NMatS0=      1 NMatT0=    0 NMatD0=    1 NMtDS0=    0 NMtDT0=    0
 Petite list used in FoFCou.
 Keep R1 and R2 ints in memory in canonical form, NReq=29209870.
 Requested convergence on RMS density matrix=1.00D-08 within1024 cycles.
 Requested convergence on MAX density matrix=1.00D-06.
 Requested convergence on             energy=1.00D-06.
 No special actions if energy rises.
 Integral accuracy reduced to 1.0D-05 until final iterations.
 Initial convergence to 1.0D-05 achieved.  Increase integral accuracy.
 SCF Done:  E(UB3LYP) =  -164.082784343     A.U. after   10 cycles
            NFock= 10  Conv=0.78D-08     -V/T= 2.0092
 <Sx>= 0.0000 <Sy>= 0.0000 <Sz>= 0.0000 <S**2>= 0.0000 S= 0.0000
 <L.S>= 0.000000000000E+00
 Annihilation of the first spin contaminant:
 S**2 before annihilation     0.0000,   after    -0.0000
 Calling FoFJK, ICntrl=      2127 FMM=F ISym2X=0 I1Cent= 0 IOpClX= 1 NMat=1 NMatS=1 NMatT=0.
 ***** Axes restored to original set *****
 -------------------------------------------------------------------
 Center     Atomic                   Forces (Hartrees/Bohr)
 Number     Number              X              Y              Z
 -------------------------------------------------------------------
      1        7           0.015065074    0.005853748   -0.009092107
      2        5           0.012845620   -0.007226210   -0.025217972
      3        7          -0.015905397    0.006447262    0.009591346
      4        5          -0.012010236   -0.008204337    0.024742138
      5        1           0.020314107   -0.001584958   -0.016692079
      6        1          -0.003433430    0.009085149    0.007703882
      7        1          -0.015474659   -0.002123746    0.007820459
      8        1           0.005610996   -0.004079616   -0.005446991
      9        1          -0.020687121   -0.001514906    0.017024260
     10        1          -0.005130179   -0.003322661    0.004863994
     11        1           0.015416160   -0.002224004   -0.007686340
     12        1           0.003389065    0.008894278   -0.007610590
 -------------------------------------------------------------------
 Cartesian Forces:  Max     0.025217972 RMS     0.011629751

 GradGradGradGradGradGradGradGradGradGradGradGradGradGradGradGradGradGrad
 Berny optimization.
 Using GEDIIS/GDIIS optimizer.
 FormGI is forming the generalized inverse of G from B-inverse, IUseBI=4.
 Internal  Forces:  Max     0.026675266 RMS     0.006678940
 Search for a local minimum.
 Step number   4 out of a maximum of   66
 All quantities printed in internal units (Hartrees-Bohrs-Radians)
 Mixed Optimization -- RFO/linear search
 Update second derivatives using D2CorX and points    3    4
 DE= -2.93D-03 DEPred=-3.35D-03 R= 8.74D-01
 TightC=F SS=  1.41D+00  RLast= 9.12D-01 DXNew= 8.6009D-01 2.7365D+00
 Trust test= 8.74D-01 RLast= 9.12D-01 DXMaxT set to 8.60D-01
 ITU=  1  1  1  0
 Use linear search instead of GDIIS.
     Eigenvalues ---    0.00124   0.00201   0.02044   0.02052   0.02078
     Eigenvalues ---    0.02140   0.03859   0.04949   0.06421   0.06820
     Eigenvalues ---    0.07664   0.09648   0.10272   0.12400   0.12616
     Eigenvalues ---    0.15901   0.16000   0.16000   0.16126   0.16689
     Eigenvalues ---    0.22574   0.25024   0.25582   0.34302   0.43480
     Eigenvalues ---    0.45600   0.46038   0.46170   0.46189   6.17345
 RFO step:  Lambda=-1.37823086D-03 EMin= 1.23557568D-03
 Quartic linear search produced a step of  0.15654.
 Iteration  1 RMS(Cart)=  0.07047978 RMS(Int)=  0.01571022
 Iteration  2 RMS(Cart)=  0.01754113 RMS(Int)=  0.00061373
 Iteration  3 RMS(Cart)=  0.00007078 RMS(Int)=  0.00061150
 Iteration  4 RMS(Cart)=  0.00000003 RMS(Int)=  0.00061150
 Variable       Old X    -DE/DX   Delta X   Delta X   Delta X     New X
                                 (Linear)    (Quad)   (Total)
    R1        2.63999   0.00001  -0.00392  -0.00191  -0.00583   2.63416
    R2        1.89103   0.00752  -0.00172   0.00017  -0.00154   1.88949
    R3        1.85623   0.02668  -0.00577   0.00194  -0.00383   1.85240
    R4        2.20792   0.01203  -0.00576   0.00127  -0.00449   2.20343
    R5        2.35071  -0.01695   0.00416   0.00753   0.01161   2.36233
    R6        3.91375   0.00459   0.08552   0.19944   0.28502   4.19877
    R7        2.64351  -0.00148  -0.00345  -0.00184  -0.00530   2.63821
    R8        1.85695   0.02620  -0.00569   0.00181  -0.00387   1.85307
    R9        1.89302   0.00648  -0.00147   0.00016  -0.00132   1.89170
   R10        3.91380   0.00456   0.08530   0.19896   0.28430   4.19809
[...]
    12  H    8.074502   7.594775   2.228931   1.195258   2.527849
                    6          7          8          9         10
     6  H    0.000000
     7  H    2.090286   0.000000
     8  H    3.152324   2.540308   0.000000
     9  H    2.525883   3.155379   1.688888   0.000000
    10  H    7.042801   5.351330   7.398210   8.459150   0.000000
    11  H    6.394974   4.352716   5.697967   7.081637   2.517892
    12  H    8.490379   6.446060   7.594482   9.071273   3.151129
                   11         12
    11  H    0.000000
    12  H    2.098209   0.000000
 Stoichiometry    B2H8N2
 Framework group  C1[X(B2H8N2)]
 Deg. of freedom    30
 Full point group                 C1      NOp   1
 Largest Abelian subgroup         C1      NOp   1
 Largest concise Abelian subgroup C1      NOp   1
                         Standard orientation:                         
 ---------------------------------------------------------------------
 Center     Atomic      Atomic             Coordinates (Angstroms)
 Number     Number       Type             X           Y           Z
 ---------------------------------------------------------------------
      1          7           0        3.953303   -0.446709   -0.016135
      2          5           0        3.175787    0.705575    0.023809
      3          7           0       -3.858970    0.497905   -0.013213
      4          5           0       -3.295566   -0.774652    0.013501
      5          1           0       -4.854059    0.660538   -0.057529
      6          1           0        3.718208    1.770017   -0.034761
      7          1           0        1.987429    0.609047    0.126011
      8          1           0        3.567045   -1.378040    0.028730
      9          1           0        4.958579   -0.429424   -0.098176
     10          1           0       -3.311656    1.345281    0.006002
     11          1           0       -2.107646   -0.865170    0.069632
     12          1           0       -4.019333   -1.725236   -0.021028
 ---------------------------------------------------------------------
 Rotational constants (GHZ):          16.8232462           0.6570872           0.6324675

 **********************************************************************

            Population analysis using the SCF density.

 **********************************************************************

 Orbital symmetries:
 Alpha Orbitals:
       Occupied  (A) (A) (A) (A) (A) (A) (A) (A) (A) (A) (A) (A)
                 (A) (A) (A) (A)
       Virtual   (A) (A) (A) (A) (A) (A) (A) (A) (A) (A) (A) (A)
                 (A) (A) (A) (A) (A) (A) (A) (A) (A) (A) (A) (A)
                 (A) (A) (A) (A) (A) (A) (A) (A) (A) (A) (A) (A)
                 (A) (A) (A) (A) (A) (A) (A) (A) (A) (A) (A) (A)
                 (A) (A) (A) (A) (A) (A) (A) (A) (A) (A) (A) (A)
                 (A) (A) (A) (A) (A) (A) (A) (A) (A) (A) (A) (A)
                 (A) (A) (A) (A) (A) (A) (A) (A) (A) (A) (A) (A)
 Beta  Orbitals:
       Occupied  (A) (A) (A) (A) (A) (A) (A) (A) (A) (A) (A) (A)
                 (A) (A) (A) (A)
       Virtual   (A) (A) (A) (A) (A) (A) (A) (A) (A) (A) (A) (A)
                 (A) (A) (A) (A) (A) (A) (A) (A) (A) (A) (A) (A)
                 (A) (A) (A) (A) (A) (A) (A) (A) (A) (A) (A) (A)
                 (A) (A) (A) (A) (A) (A) (A) (A) (A) (A) (A) (A)
                 (A) (A) (A) (A) (A) (A) (A) (A) (A) (A) (A) (A)
                 (A) (A) (A) (A) (A) (A) (A) (A) (A) (A) (A) (A)
                 (A) (A) (A) (A) (A) (A) (A) (A) (A) (A) (A) (A)
 The electronic state is 1-A.
 Alpha  occ. eigenvalues --  -14.33398 -14.33282  -6.72955  -6.72851  -0.86318
 Alpha  occ. eigenvalues --   -0.86187  -0.51679  -0.51600  -0.50718  -0.50607
 Alpha  occ. eigenvalues --   -0.38332  -0.38150  -0.31166  -0.31071  -0.29346
 Alpha  occ. eigenvalues --   -0.29219
 Alpha virt. eigenvalues --    0.02521   0.02582   0.08260   0.08350   0.13714
 Alpha virt. eigenvalues --    0.13864   0.19101   0.20081   0.24320   0.24420
 Alpha virt. eigenvalues --    0.25237   0.25751   0.44006   0.44135   0.46049
 Alpha virt. eigenvalues --    0.46142   0.47488   0.47504   0.57415   0.57419
 Alpha virt. eigenvalues --    0.73157   0.73299   0.74123   0.74226   0.82140
 Alpha virt. eigenvalues --    0.82486   0.86477   0.86676   0.91576   0.92364
 Alpha virt. eigenvalues --    0.93016   0.94793   1.15678   1.16164   1.17536
 Alpha virt. eigenvalues --    1.17635   1.18253   1.18411   1.22283   1.22423
 Alpha virt. eigenvalues --    1.47441   1.47529   1.58923   1.59392   1.69173
 Alpha virt. eigenvalues --    1.70067   1.73404   1.73986   2.02934   2.03115
 Alpha virt. eigenvalues --    2.07662   2.07776   2.15774   2.15938   2.25854
 Alpha virt. eigenvalues --    2.26249   2.30102   2.30427   2.39175   2.39796
 Alpha virt. eigenvalues --    2.41034   2.41055   2.56391   2.56409   2.60855
 Alpha virt. eigenvalues --    2.61755   2.65286   2.65897   2.66680   2.66904
 Alpha virt. eigenvalues --    2.94408   2.94504   3.12105   3.13105   3.23133
 Alpha virt. eigenvalues --    3.23327   3.27006   3.27458   3.62226   3.62569
 Alpha virt. eigenvalues --    3.66535   3.66905   4.10254   4.10278
  Beta  occ. eigenvalues --  -14.33398 -14.33282  -6.72955  -6.72851  -0.86318
  Beta  occ. eigenvalues --   -0.86187  -0.51679  -0.51600  -0.50718  -0.50607
  Beta  occ. eigenvalues --   -0.38332  -0.38150  -0.31166  -0.31071  -0.29346
  Beta  occ. eigenvalues --   -0.29219
  Beta virt. eigenvalues --    0.02521   0.02582   0.08260   0.08350   0.13714
  Beta virt. eigenvalues --    0.13864   0.19101   0.20081   0.24320   0.24420
  Beta virt. eigenvalues --    0.25237   0.25751   0.44006   0.44135   0.46049
  Beta virt. eigenvalues --    0.46142   0.47488   0.47504   0.57415   0.57419
  Beta virt. eigenvalues --    0.73157   0.73299   0.74123   0.74226   0.82140
  Beta virt. eigenvalues --    0.82486   0.86477   0.86676   0.91576   0.92364
  Beta virt. eigenvalues --    0.93016   0.94793   1.15678   1.16164   1.17536
  Beta virt. eigenvalues --    1.17635   1.18253   1.18411   1.22283   1.22423
  Beta virt. eigenvalues --    1.47441   1.47529   1.58923   1.59392   1.69173
  Beta virt. eigenvalues --    1.70067   1.73404   1.73986   2.02934   2.03115
  Beta virt. eigenvalues --    2.07662   2.07776   2.15774   2.15938   2.25854
  Beta virt. eigenvalues --    2.26249   2.30102   2.30427   2.39175   2.39796
  Beta virt. eigenvalues --    2.41034   2.41055   2.56391   2.56409   2.60855
  Beta virt. eigenvalues --    2.61755   2.65286   2.65897   2.66680   2.66904
  Beta virt. eigenvalues --    2.94408   2.94504   3.12105   3.13105   3.23133
  Beta virt. eigenvalues --    3.23327   3.27006   3.27458   3.62226   3.62569
  Beta virt. eigenvalues --    3.66535   3.66905   4.10254   4.10278
          Condensed to atoms (all electrons):
               1          2          3          4          5          6
     1  N    6.362079   0.516081  -0.000000   0.000000   0.000000  -0.027443
     2  B    0.516081   3.560520   0.000000  -0.000002  -0.000000   0.413548
     3  N   -0.000000   0.000000   6.364398   0.515639   0.356124  -0.000000
     4  B    0.000000  -0.000002   0.515639   3.559266  -0.035235   0.000000
     5  H    0.000000  -0.000000   0.356124  -0.035235   0.452061   0.000000
     6  H   -0.027443   0.413548  -0.000000   0.000000   0.000000   0.719108
     7  H   -0.026439   0.414468  -0.000000  -0.000001   0.000000  -0.028070
     8  H    0.356573  -0.034875  -0.000000   0.000000   0.000000   0.003655
     9  H    0.356683  -0.035143   0.000000  -0.000000  -0.000000  -0.004254
    10  H   -0.000000   0.000000   0.356699  -0.034680  -0.031293  -0.000000
    11  H   -0.000000  -0.000003  -0.027565   0.414954   0.003724  -0.000000
    12  H   -0.000000   0.000000  -0.027444   0.413651  -0.004213  -0.000000
               7          8          9         10         11         12
     1  N   -0.026439   0.356573   0.356683  -0.000000  -0.000000  -0.000000
     2  B    0.414468  -0.034875  -0.035143   0.000000  -0.000003   0.000000
     3  N   -0.000000  -0.000000   0.000000   0.356699  -0.027565  -0.027444
     4  B   -0.000001   0.000000  -0.000000  -0.034680   0.414954   0.413651
     5  H    0.000000   0.000000  -0.000000  -0.031293   0.003724  -0.004213
     6  H   -0.028070   0.003655  -0.004254  -0.000000  -0.000000  -0.000000
     7  H    0.712792  -0.004110   0.003595  -0.000000   0.000038  -0.000000
     8  H   -0.004110   0.448846  -0.031266  -0.000000  -0.000000  -0.000000
     9  H    0.003595  -0.031266   0.450616   0.000000   0.000000   0.000000
    10  H   -0.000000  -0.000000   0.000000   0.448572  -0.004216   0.003639
    11  H    0.000038  -0.000000   0.000000  -0.004216   0.713009  -0.027362
    12  H   -0.000000  -0.000000   0.000000   0.003639  -0.027362   0.717814
          Atomic-Atomic Spin Densities.
               1          2          3          4          5          6
     1  N   -0.000000  -0.000000  -0.000000   0.000000  -0.000000  -0.000000
     2  B   -0.000000   0.000000  -0.000000  -0.000000   0.000000   0.000000
     3  N   -0.000000  -0.000000   0.000000  -0.000000  -0.000000  -0.000000
     4  B    0.000000  -0.000000  -0.000000  -0.000000   0.000000   0.000000
     5  H   -0.000000   0.000000  -0.000000   0.000000  -0.000000  -0.000000
     6  H   -0.000000   0.000000  -0.000000   0.000000  -0.000000  -0.000000
     7  H   -0.000000   0.000000   0.000000  -0.000000  -0.000000   0.000000
     8  H    0.000000  -0.000000  -0.000000   0.000000   0.000000  -0.000000
     9  H    0.000000  -0.000000   0.000000  -0.000000  -0.000000   0.000000
    10  H    0.000000  -0.000000   0.000000  -0.000000  -0.000000   0.000000
    11  H   -0.000000  -0.000000  -0.000000   0.000000  -0.000000  -0.000000
    12  H    0.000000   0.000000   0.000000   0.000000  -0.000000   0.000000
               7          8          9         10         11         12
     1  N   -0.000000   0.000000   0.000000   0.000000  -0.000000   0.000000
     2  B    0.000000  -0.000000  -0.000000  -0.000000  -0.000000   0.000000
     3  N    0.000000  -0.000000   0.000000   0.000000  -0.000000   0.000000
     4  B   -0.000000   0.000000  -0.000000  -0.000000   0.000000   0.000000
     5  H   -0.000000   0.000000  -0.000000  -0.000000  -0.000000  -0.000000
     6  H    0.000000  -0.000000   0.000000   0.000000  -0.000000   0.000000
     7  H    0.000000   0.000000  -0.000000   0.000000   0.000000   0.000000
     8  H    0.000000   0.000000   0.000000  -0.000000  -0.000000   0.000000
     9  H   -0.000000   0.000000  -0.000000   0.000000   0.000000   0.000000
    10  H    0.000000  -0.000000   0.000000   0.000000  -0.000000   0.000000
    11  H    0.000000  -0.000000   0.000000  -0.000000  -0.000000   0.000000
    12  H    0.000000   0.000000   0.000000   0.000000   0.000000   0.000000
 Mulliken charges and spin densities:
               1          2
     1  N   -0.537534  -0.000000
     2  B    0.165405   0.000000
     3  N   -0.537851   0.000000
     4  B    0.166407  -0.000000
     5  H    0.258833  -0.000000
     6  H   -0.076545  -0.000000
     7  H   -0.072273   0.000000
     8  H    0.261176   0.000000
     9  H    0.259768  -0.000000
    10  H    0.261278   0.000000
    11  H   -0.072579  -0.000000
    12  H   -0.076085   0.000000
 Sum of Mulliken charges =   0.00000  -0.00000
 Mulliken charges and spin densities with hydrogens summed into heavy atoms:
               1          2
     1  N   -0.016590  -0.000000
     2  B    0.016588   0.000000
     3  N   -0.017741   0.000000
     4  B    0.017743  -0.000000
 Electronic spatial extent (au):  <R**2>=           1651.8883
 Charge=             -0.0000 electrons
 Dipole moment (field-independent basis, Debye):
    X=              0.3331    Y=              0.1601    Z=             -0.1192  Tot=              0.3884
 Quadrupole moment (field-independent basis, Debye-Ang):
   XX=            -11.2368   YY=            -26.1772   ZZ=            -28.7096
   XY=            -13.2168   XZ=             -0.1589   YZ=             -0.0451
 Traceless Quadrupole moment (field-independent basis, Debye-Ang):
   XX=             10.8044   YY=             -4.1360   ZZ=             -6.6684
   XY=            -13.2168   XZ=             -0.1589   YZ=             -0.0451
 Octapole moment (field-independent basis, Debye-Ang**2):
  XXX=             15.0188  YYY=              0.4826  ZZZ=             -0.2056  XYY=              0.7060
  XXY=              3.1891  XXZ=             -3.6395  XZZ=              0.2540  YZZ=              0.0890
  YYZ=             -0.0140  XYZ=              0.2610
 Hexadecapole moment (field-independent basis, Debye-Ang**3):
 XXXX=          -1490.8093 YYYY=           -135.2559 ZZZZ=            -28.5151 XXXY=           -254.9377
 XXXZ=             -6.5225 YYYX=            -82.5189 YYYZ=             -0.1224 ZZZX=             -0.1748
 ZZZY=             -0.0191 XXYY=           -363.1107 XXZZ=           -384.7480 YYZZ=            -27.7006
 XXYZ=             -0.3561 YYXZ=              0.3844 ZZXY=             -8.2902
 N-N= 8.322930724276D+01 E-N=-5.468397259216D+02  KE= 1.624653682641D+02
                          Isotropic Fermi Contact Couplings
        Atom                 a.u.       MegaHertz       Gauss      10(-4) cm-1
     1  N(14)             -0.00000      -0.00000      -0.00000      -0.00000
     2  B(11)             -0.00000      -0.00000      -0.00000      -0.00000
     3  N(14)              0.00000       0.00000       0.00000       0.00000
     4  B(11)             -0.00000      -0.00000      -0.00000      -0.00000
     5  H(1)               0.00000       0.00000       0.00000       0.00000
     6  H(1)               0.00000       0.00000       0.00000       0.00000
     7  H(1)               0.00000       0.00000       0.00000       0.00000
     8  H(1)              -0.00000      -0.00000      -0.00000      -0.00000
     9  H(1)               0.00000       0.00000       0.00000       0.00000
    10  H(1)              -0.00000      -0.00000      -0.00000      -0.00000
    11  H(1)              -0.00000      -0.00000      -0.00000      -0.00000
    12  H(1)              -0.00000      -0.00000      -0.00000      -0.00000
 --------------------------------------------------------
       Center         ----  Spin Dipole Couplings  ----
                      3XX-RR        3YY-RR        3ZZ-RR
 --------------------------------------------------------
     1   Atom        0.000000      0.000000      0.000000
     2   Atom        0.000000      0.000000      0.000000
     3   Atom        0.000000      0.000000      0.000000
     4   Atom        0.000000      0.000000      0.000000
     5   Atom        0.000000      0.000000      0.000000
     6   Atom        0.000000      0.000000      0.000000
     7   Atom        0.000000      0.000000      0.000000
     8   Atom        0.000000      0.000000      0.000000
     9   Atom        0.000000      0.000000      0.000000
    10   Atom        0.000000      0.000000      0.000000
    11   Atom        0.000000      0.000000      0.000000
    12   Atom        0.000000      0.000000      0.000000
 --------------------------------------------------------
                        XY            XZ            YZ
 --------------------------------------------------------
     1   Atom        0.000000      0.000000      0.000000
     2   Atom        0.000000      0.000000      0.000000
     3   Atom        0.000000      0.000000      0.000000
     4   Atom        0.000000      0.000000      0.000000
     5   Atom        0.000000      0.000000      0.000000
     6   Atom        0.000000      0.000000      0.000000
     7   Atom        0.000000      0.000000      0.000000
     8   Atom        0.000000      0.000000      0.000000
     9   Atom        0.000000      0.000000      0.000000
    10   Atom        0.000000      0.000000      0.000000
    11   Atom        0.000000      0.000000      0.000000
    12   Atom        0.000000      0.000000      0.000000
 --------------------------------------------------------


 ---------------------------------------------------------------------------------
              Anisotropic Spin Dipole Couplings in Principal Axis System
 ---------------------------------------------------------------------------------

       Atom             a.u.   MegaHertz   Gauss  10(-4) cm-1        Axes

              Baa     0.0000     0.000     0.000     0.000  1.0000  0.0000  0.0000
     1 N(14)  Bbb     0.0000     0.000     0.000     0.000 -0.0000  1.0000  0.0000
              Bcc     0.0000     0.000     0.000     0.000  0.0000  0.0000  1.0000
 
              Baa     0.0000     0.000     0.000     0.000  1.0000  0.0000  0.0000
     2 B(11)  Bbb     0.0000     0.000     0.000     0.000 -0.0000  1.0000  0.0000
              Bcc     0.0000     0.000     0.000     0.000  0.0000  0.0000  1.0000
 
              Baa     0.0000     0.000     0.000     0.000  1.0000  0.0000  0.0000
     3 N(14)  Bbb     0.0000     0.000     0.000     0.000 -0.0000  1.0000  0.0000
              Bcc     0.0000     0.000     0.000     0.000  0.0000  0.0000  1.0000
 
              Baa     0.0000     0.000     0.000     0.000  1.0000  0.0000  0.0000
     4 B(11)  Bbb     0.0000     0.000     0.000     0.000 -0.0000  1.0000  0.0000
              Bcc     0.0000     0.000     0.000     0.000  0.0000  0.0000  1.0000
 
              Baa     0.0000     0.000     0.000     0.000  1.0000  0.0000  0.0000
     5 H(1)   Bbb     0.0000     0.000     0.000     0.000 -0.0000  1.0000  0.0000
              Bcc     0.0000     0.000     0.000     0.000  0.0000  0.0000  1.0000
 
              Baa     0.0000     0.000     0.000     0.000  1.0000  0.0000  0.0000
     6 H(1)   Bbb     0.0000     0.000     0.000     0.000 -0.0000  1.0000  0.0000
              Bcc     0.0000     0.000     0.000     0.000  0.0000  0.0000  1.0000
 
              Baa     0.0000     0.000     0.000     0.000  1.0000  0.0000  0.0000
     7 H(1)   Bbb     0.0000     0.000     0.000     0.000 -0.0000  1.0000  0.0000
              Bcc     0.0000     0.000     0.000     0.000  0.0000  0.0000  1.0000
 
              Baa     0.0000     0.000     0.000     0.000  1.0000  0.0000  0.0000
     8 H(1)   Bbb     0.0000     0.000     0.000     0.000 -0.0000  1.0000  0.0000
              Bcc     0.0000     0.000     0.000     0.000  0.0000  0.0000  1.0000
 
              Baa     0.0000     0.000     0.000     0.000  1.0000  0.0000  0.0000
     9 H(1)   Bbb     0.0000     0.000     0.000     0.000 -0.0000  1.0000  0.0000
              Bcc     0.0000     0.000     0.000     0.000  0.0000  0.0000  1.0000
 
              Baa     0.0000     0.000     0.000     0.000  1.0000  0.0000  0.0000
    10 H(1)   Bbb     0.0000     0.000     0.000     0.000 -0.0000  1.0000  0.0000
              Bcc     0.0000     0.000     0.000     0.000  0.0000  0.0000  1.0000
 
              Baa     0.0000     0.000     0.000     0.000  1.0000  0.0000  0.0000
    11 H(1)   Bbb     0.0000     0.000     0.000     0.000 -0.0000  1.0000  0.0000
              Bcc     0.0000     0.000     0.000     0.000  0.0000  0.0000  1.0000
 
              Baa     0.0000     0.000     0.000     0.000  1.0000  0.0000  0.0000
    12 H(1)   Bbb     0.0000     0.000     0.000     0.000 -0.0000  1.0000  0.0000
              Bcc     0.0000     0.000     0.000     0.000  0.0000  0.0000  1.0000
 

 ---------------------------------------------------------------------------------



 IN NATURE THERE ARE NEITHER REWARDS OR
 PUNISHMENTS -- THERE ARE CONSEQUENCES.

                            -- ROBERT GREEN INGERSOLL
 Error termination request processed by link 9999.
 Error termination via Lnk1e in /opt/gaussian/g16/legacy/g16/l9999.exe at Fri Jul  3 19:27:04 2020.
 Job cpu time:       0 days  1 hours 10 minutes 40.1 seconds.
 Elapsed time:       0 days  0 hours 18 minutes 22.9 seconds.
 File lengths (MBytes):  RWF=     15 Int=      0 D2E=      0 Chk=      2 Scr=      1
