 Entering Gaussian System, Link 0=/opt/gaussian/g16/legacy/g16/g16
 Initial command:
 /opt/gaussian/g16/legacy/g16/l1.exe "/scratch/1311842/Gau-8895.inp" -scrdir="/scratch/1311842/"
 Entering Link 1 = /opt/gaussian/g16/legacy/g16/l1.exe PID=      8908.
  
 Copyright (c) 1988,1990,1992,1993,1995,1998,2003,2009,2016,
            Gaussian, Inc.  All Rights Reserved.
  
 This is part of the Gaussian(R) 16 program.  It is based on
 the Gaussian(R) 09 system (copyright 2009, Gaussian, Inc.),
 the Gaussian(R) 03 system (copyright 2003, Gaussian, Inc.),
 the Gaussian(R) 98 system (copyright 1998, Gaussian, Inc.),
 the Gaussian(R) 94 system (copyright 1995, Gaussian, Inc.),
 the Gaussian 92(TM) system (copyright 1992, Gaussian, Inc.),
 the Gaussian 90(TM) system (copyright 1990, Gaussian, Inc.),
 the Gaussian 88(TM) system (copyright 1988, Gaussian, Inc.),
 the Gaussian 86(TM) system (copyright 1986, Carnegie Mellon
 University), and the Gaussian 82(TM) system (copyright 1983,
 Carnegie Mellon University). Gaussian is a federally registered
 trademark of Gaussian, Inc.
  
 This software contains proprietary and confidential information,
 including trade secrets, belonging to Gaussian, Inc.
  
 This software is provided under written license and may be
 used, copied, transmitted, or stored only in accord with that
 written license.
  
 The following legend is applicable only to US Government
 contracts under FAR:
  
                    RESTRICTED RIGHTS LEGEND
  
 Use, reproduction and disclosure by the US Government is
 subject to restrictions as set forth in subparagraphs (a)
 and (c) of the Commercial Computer Software - Restricted
 Rights clause in FAR 52.227-19.
  
 Gaussian, Inc.
 340 Quinnipiac St., Bldg. 40, Wallingford CT 06492
  
  
 ---------------------------------------------------------------
 Warning -- This program may not be used in any manner that
 competes with the business of Gaussian, Inc. or will provide
 assistance to any competitor of Gaussian, Inc.  The licensee
 of this program is prohibited from giving any competitor of
 Gaussian, Inc. access to this program.  By using this program,
 the user acknowledges that Gaussian, Inc. is engaged in the
 business of creating and licensing software in the field of
 computational chemistry and represents and warrants to the
 licensee that it is not a competitor of Gaussian, Inc. and that
 it will not use this program in any manner prohibited above.
 ---------------------------------------------------------------
  

 Cite this work as:
 Gaussian 16, Revision A.03,
 M. J. Frisch, G. W. Trucks, H. B. Schlegel, G. E. Scuseria, 
 M. A. Robb, J. R. Cheeseman, G. Scalmani, V. Barone, 
 G. A. Petersson, H. Nakatsuji, X. Li, M. Caricato, A. V. Marenich, 
 J. Bloino, B. G. Janesko, R. Gomperts, B. Mennucci, H. P. Hratchian, 
 J. V. Ortiz, A. F. Izmaylov, J. L. Sonnenberg, D. Williams-Young, 
 F. Ding, F. Lipparini, F. Egidi, J. Goings, B. Peng, A. Petrone, 
 T. Henderson, D. Ranasinghe, V. G. Zakrzewski, J. Gao, N. Rega, 
 G. Zheng, W. Liang, M. Hada, M. Ehara, K. Toyota, R. Fukuda, 
 J. Hasegawa, M. Ishida, T. Nakajima, Y. Honda, O. Kitao, H. Nakai, 
 T. Vreven, K. Throssell, J. A. Montgomery, Jr., J. E. Peralta, 
 F. Ogliaro, M. J. Bearpark, J. J. Heyd, E. N. Brothers, K. N. Kudin, 
 V. N. Staroverov, T. A. Keith, R. Kobayashi, J. Normand, 
 K. Raghavachari, A. P. Rendell, J. C. Burant, S. S. Iyengar, 
 J. Tomasi, M. Cossi, J. M. Millam, M. Klene, C. Adamo, R. Cammi, 
 J. W. Ochterski, R. L. Martin, K. Morokuma, O. Farkas, 
 J. B. Foresman, and D. J. Fox, Gaussian, Inc., Wallingford CT, 2016.
 
 ******************************************
 Gaussian 16:  EM64L-G16RevA.03 25-Dec-2016
                 3-Jul-2020 
 ******************************************
 %mem=16GB
 %nprocshared=4
 Will use up to    4 processors via shared memory.
 ----------------------------------------------------------------------
 #irc=(reverse calcfc, maxpoint=100, stepsize=5) ub3lyp/6-31G(d,p) scf=
 (maxcycles=1024)
 ----------------------------------------------------------------------
 1/10=4,18=10,22=2,26=3,38=1,39=5,42=100,44=3,172=1/1,23;
 2/12=2,17=6,18=5,29=1,40=1/2;
 3/5=1,6=6,7=101,11=2,25=1,30=1,71=2,74=-5,116=2,140=1/1,2,3;
 4//1;
 5/5=2,7=1024,38=5/2;
 8/6=4,10=90,11=11/1;
 11/6=1,8=1,9=11,15=111,16=1/1,2,10;
 10/6=1,13=1/2;
 6/7=2,8=2,9=2,10=2,28=1/1;
 7/10=1,18=20,25=1/1,2,3,16;
 1/10=4,18=10,22=2,26=3,39=5,42=100,44=3/23(2);
 2/29=1/2;
 99/5=20/99;
 2/29=1/2;
 3/5=1,6=6,7=101,11=2,25=1,30=1,71=2,74=-5,116=2,140=1/1,2,3;
 4/5=5,16=3,69=1/1;
 5/5=2,7=1024,38=5/2;
 8/6=4,10=90,11=11/1;
 11/6=1,8=1,9=11,15=111,16=1/1,2,10;
 10/6=1,13=1/2;
 7/10=1,18=20,25=1/1,2,3,16;
 1/18=10,22=2,26=3,39=5,42=100,44=3/23(-8);
 2/29=1/2;
 6/7=2,8=2,9=2,10=2,19=2,28=1/1;
 99/5=20,9=1/99;
 ---------------
 something title
 ---------------
 Symbolic Z-matrix:
 Charge =  0 Multiplicity = 1
 N                    -1.66995  -0.54783  -0.04419 
 B                    -0.91196   0.66949  -0.02259 
 N                     1.66995  -0.54783   0.04419 
 B                     0.91196   0.66949   0.02259 
 H                     2.63036  -0.55167  -0.25579 
 H                    -1.48479   1.71152   0.075 
 H                    -0.03646   0.79829  -0.97612 
 H                    -1.27066  -1.47077  -0.10159 
 H                    -2.63036  -0.55167   0.2558 
 H                     1.27066  -1.47077   0.10159 
 H                     0.03646   0.79829   0.97612 
 H                     1.48479   1.71152  -0.075 
 
 IRC-IRC-IRC-IRC-IRC-IRC-IRC-IRC-IRC-IRC-IRC-IRC-IRC-IRC-IRC-IRC-IRC-IRC
 ------------------------------------------------------------------------
 INPUT DATA FOR L123
 ------------------------------------------------------------------------
 GENERAL PARAMETERS:
 Rxn path following direction = Reverse
 Maximum points per path      = 100
 Step size                    =   0.050 bohr
 Integration scheme           = HPC                                 
    Redo corrector integration= Yes                                 
    DWI Weight Power          =  2
    DWI will use Hessian update vectors when possible.
    Max correction cycles     =  20
 Initial Hessian              = CalcFC
 Hessian evaluation           = All updating
 Hessian updating method      = Bofill                              
 ------------------------------------------------------------------------
 IRC-IRC-IRC-IRC-IRC-IRC-IRC-IRC-IRC-IRC-IRC-IRC-IRC-IRC-IRC-IRC-IRC-IRC
                          Input orientation:                          
 ---------------------------------------------------------------------
 Center     Atomic      Atomic             Coordinates (Angstroms)
 Number     Number       Type             X           Y           Z
 ---------------------------------------------------------------------
      1          7           0       -1.669950   -0.547830   -0.044190
      2          5           0       -0.911960    0.669490   -0.022590
      3          7           0        1.669950   -0.547830    0.044190
      4          5           0        0.911960    0.669490    0.022590
      5          1           0        2.630360   -0.551670   -0.255790
      6          1           0       -1.484790    1.711520    0.075000
      7          1           0       -0.036460    0.798290   -0.976120
      8          1           0       -1.270660   -1.470770   -0.101590
      9          1           0       -2.630360   -0.551670    0.255800
     10          1           0        1.270660   -1.470770    0.101590
     11          1           0        0.036460    0.798290    0.976120
     12          1           0        1.484790    1.711520   -0.075000
 ---------------------------------------------------------------------
                    Distance matrix (angstroms):
                    1          2          3          4          5
     1  N    0.000000
     2  B    1.434184   0.000000
     3  N    3.341069   2.855274   0.000000
     4  B    2.855274   1.824479   1.434184   0.000000
     5  H    4.305515   3.754150   1.006176   2.126411   0.000000
     6  H    2.270056   1.193099   3.880463   2.613998   4.708069
     7  H    2.312752   1.300888   2.401022   1.383297   3.074605
     8  H    1.007246   2.171548   3.085491   3.059406   4.010795
     9  H    1.006179   2.126413   4.305515   3.754151   5.285537
    10  H    3.085491   3.059406   1.007246   2.171548   1.679658
    11  H    2.401022   1.383297   2.312752   1.300888   3.173060
    12  H    3.880463   2.613998   2.270056   1.193099   2.543038
                    6          7          8          9         10
     6  H    0.000000
     7  H    2.009105   0.000000
     8  H    3.194371   2.727029   0.000000
     9  H    2.543039   3.173064   1.679660   0.000000
    10  H    4.209535   2.831723   2.549429   4.010796   0.000000
    11  H    1.990027   1.953601   2.831723   3.074603   2.727029
    12  H    2.973366   1.990027   4.209535   4.708069   3.194371
                   11         12
    11  H    0.000000
    12  H    2.009105   0.000000
 Symmetry turned off by external request.
 Stoichiometry    B2H8N2
 Framework group  C1[X(B2H8N2)]
 Deg. of freedom    30
 Full point group                 C1      NOp   1
 Rotational constants (GHZ):          15.5162894           4.2040972           3.4030225
 Standard basis: 6-31G(d,p) (6D, 7F)
   100 basis functions,   168 primitive gaussians,   100 cartesian basis functions
    16 alpha electrons       16 beta electrons
       nuclear repulsion energy       111.9052242640 Hartrees.
 NAtoms=   12 NActive=   12 NUniq=   12 SFac= 1.00D+00 NAtFMM=   60 NAOKFM=F Big=F
 Integral buffers will be    131072 words long.
 Raffenetti 2 integral format.
 Two-electron integral symmetry is turned off.
 One-electron integrals computed using PRISM.
 NBasis=   100 RedAO= T EigKep=  4.10D-03  NBF=   100
 NBsUse=   100 1.00D-06 EigRej= -1.00D+00 NBFU=   100
 ExpMin= 1.27D-01 ExpMax= 4.17D+03 ExpMxC= 6.27D+02 IAcc=3 IRadAn=         5 AccDes= 0.00D+00
 Harris functional with IExCor=  402 and IRadAn=       5 diagonalized for initial guess.
 HarFok:  IExCor=  402 AccDes= 0.00D+00 IRadAn=         5 IDoV= 1 UseB2=F ITyADJ=14
 ICtDFT=  3500011 ScaDFX=  1.000000  1.000000  1.000000  1.000000
 FoFCou: FMM=F IPFlag=           0 FMFlag=      100000 FMFlg1=           0
         NFxFlg=           0 DoJE=T BraDBF=F KetDBF=T FulRan=T
         wScrn=  0.000000 ICntrl=       500 IOpCl=  0 I1Cent=   200000004 NGrid=           0
         NMat0=    1 NMatS0=      1 NMatT0=    0 NMatD0=    1 NMtDS0=    0 NMtDT0=    0
 Symmetry not used in FoFCou.
 Initial guess <Sx>= 0.0000 <Sy>= 0.0000 <Sz>= 0.0000 <S**2>=-0.0000 S=-0.0000
 Keep R1 and R2 ints in memory in canonical form, NReq=29209654.
 Requested convergence on RMS density matrix=1.00D-08 within1024 cycles.
 Requested convergence on MAX density matrix=1.00D-06.
 Requested convergence on             energy=1.00D-06.
 No special actions if energy rises.
 Integral accuracy reduced to 1.0D-05 until final iterations.
 Initial convergence to 1.0D-05 achieved.  Increase integral accuracy.
 SCF Done:  E(UB3LYP) =  -164.078746808     A.U. after   12 cycles
            NFock= 12  Conv=0.12D-08     -V/T= 2.0099
 <Sx>= 0.0000 <Sy>= 0.0000 <Sz>= 0.0000 <S**2>=-0.0000 S=-0.0000
 <L.S>= 0.000000000000E+00
 Annihilation of the first spin contaminant:
 S**2 before annihilation    -0.0000,   after     0.0000
 DoSCS=F DFT=T ScalE2(SS,OS)=  1.000000  1.000000
 Range of M.O.s used for correlation:     1   100
 NBasis=   100 NAE=    16 NBE=    16 NFC=     0 NFV=     0
 NROrb=    100 NOA=    16 NOB=    16 NVA=    84 NVB=    84
 Symmetrizing basis deriv contribution to polar:
 IMax=3 JMax=2 DiffMx= 0.00D+00
 G2DrvN: will do    13 centers at a time, making    1 passes.
 Calling FoFCou, ICntrl=  3107 FMM=F I1Cent=   0 AccDes= 0.00D+00.
 End of G2Drv F.D. properties file   721 does not exist.
 End of G2Drv F.D. properties file   722 does not exist.
 End of G2Drv F.D. properties file   788 does not exist.
          IDoAtm=111111111111
          Differentiating once with respect to nuclear coordinates.
 Keep R1 and R2 ints in memory in canonical form, NReq=29207599.
          There are    39 degrees of freedom in the 1st order CPHF.  IDoFFX=6 NUNeed=     0.
     33 vectors produced by pass  0 Test12= 6.89D-15 2.56D-09 XBig12= 1.44D-01 7.53D-02.
 AX will form    33 AO Fock derivatives at one time.
     33 vectors produced by pass  1 Test12= 6.89D-15 2.56D-09 XBig12= 5.86D-03 1.35D-02.
     33 vectors produced by pass  2 Test12= 6.89D-15 2.56D-09 XBig12= 4.83D-05 1.12D-03.
     33 vectors produced by pass  3 Test12= 6.89D-15 2.56D-09 XBig12= 1.01D-07 4.26D-05.
     33 vectors produced by pass  4 Test12= 6.89D-15 2.56D-09 XBig12= 8.92D-11 1.22D-06.
     13 vectors produced by pass  5 Test12= 6.89D-15 2.56D-09 XBig12= 4.19D-14 2.85D-08.
 InvSVY:  IOpt=1 It=  1 EMax= 1.55D-15
 Solved reduced A of dimension   178 with    33 vectors.
 End of Minotr F.D. properties file   721 does not exist.
 End of Minotr F.D. properties file   722 does not exist.
 End of Minotr F.D. properties file   788 does not exist.

 **********************************************************************

            Population analysis using the SCF density.

 **********************************************************************

 Alpha  occ. eigenvalues --  -14.30486 -14.30486  -6.75211  -6.75192  -0.84615
 Alpha  occ. eigenvalues --   -0.83687  -0.61804  -0.49639  -0.49054  -0.46634
 Alpha  occ. eigenvalues --   -0.43380  -0.39803  -0.34435  -0.33351  -0.26671
 Alpha  occ. eigenvalues --   -0.22180
 Alpha virt. eigenvalues --    0.05106   0.05815   0.10701   0.12023   0.13762
 Alpha virt. eigenvalues --    0.16707   0.18422   0.20846   0.24016   0.28180
 Alpha virt. eigenvalues --    0.28857   0.36473   0.39348   0.43869   0.48243
 Alpha virt. eigenvalues --    0.52038   0.53883   0.60381   0.67102   0.71119
 Alpha virt. eigenvalues --    0.73696   0.75260   0.78275   0.79808   0.82353
 Alpha virt. eigenvalues --    0.85677   0.85713   0.87480   0.90242   0.92982
 Alpha virt. eigenvalues --    0.96341   0.97093   1.10014   1.11642   1.16652
 Alpha virt. eigenvalues --    1.23336   1.34028   1.36628   1.37852   1.44764
 Alpha virt. eigenvalues --    1.45733   1.55699   1.60016   1.61652   1.67931
 Alpha virt. eigenvalues --    1.83597   1.84382   1.85448   2.00313   2.01281
 Alpha virt. eigenvalues --    2.09955   2.13783   2.16644   2.19616   2.22110
 Alpha virt. eigenvalues --    2.26879   2.34733   2.37866   2.40388   2.51829
 Alpha virt. eigenvalues --    2.52920   2.53659   2.59305   2.60303   2.62275
 Alpha virt. eigenvalues --    2.66595   2.69896   2.75254   2.81161   2.82301
 Alpha virt. eigenvalues --    2.95360   2.96342   3.03251   3.07405   3.21054
 Alpha virt. eigenvalues --    3.22364   3.30310   3.36398   3.52468   3.60832
 Alpha virt. eigenvalues --    3.61546   3.80938   4.24925   4.27700
  Beta  occ. eigenvalues --  -14.30486 -14.30486  -6.75211  -6.75192  -0.84615
  Beta  occ. eigenvalues --   -0.83687  -0.61804  -0.49639  -0.49054  -0.46634
  Beta  occ. eigenvalues --   -0.43380  -0.39803  -0.34435  -0.33351  -0.26671
  Beta  occ. eigenvalues --   -0.22180
  Beta virt. eigenvalues --    0.05106   0.05815   0.10701   0.12023   0.13762
  Beta virt. eigenvalues --    0.16707   0.18422   0.20846   0.24016   0.28180
  Beta virt. eigenvalues --    0.28857   0.36473   0.39348   0.43869   0.48243
  Beta virt. eigenvalues --    0.52038   0.53883   0.60381   0.67102   0.71119
  Beta virt. eigenvalues --    0.73696   0.75260   0.78275   0.79808   0.82353
  Beta virt. eigenvalues --    0.85677   0.85713   0.87480   0.90242   0.92982
  Beta virt. eigenvalues --    0.96341   0.97093   1.10014   1.11642   1.16652
  Beta virt. eigenvalues --    1.23336   1.34028   1.36628   1.37852   1.44764
  Beta virt. eigenvalues --    1.45733   1.55699   1.60016   1.61652   1.67931
  Beta virt. eigenvalues --    1.83597   1.84382   1.85448   2.00313   2.01281
  Beta virt. eigenvalues --    2.09955   2.13783   2.16644   2.19616   2.22110
  Beta virt. eigenvalues --    2.26879   2.34733   2.37866   2.40388   2.51829
  Beta virt. eigenvalues --    2.52920   2.53659   2.59305   2.60303   2.62275
  Beta virt. eigenvalues --    2.66595   2.69896   2.75254   2.81161   2.82301
  Beta virt. eigenvalues --    2.95360   2.96342   3.03251   3.07405   3.21054
  Beta virt. eigenvalues --    3.22364   3.30310   3.36398   3.52468   3.60832
  Beta virt. eigenvalues --    3.61546   3.80938   4.24925   4.27700
          Condensed to atoms (all electrons):
               1          2          3          4          5          6
     1  N    6.546917   0.455495  -0.002441  -0.009845   0.000011  -0.025631
     2  B    0.455495   3.503031  -0.009844   0.152737   0.001203   0.403216
     3  N   -0.002441  -0.009844   6.546916   0.455495   0.364803   0.001352
     4  B   -0.009845   0.152737   0.455495   3.503031  -0.031068  -0.023743
     5  H    0.000011   0.001203   0.364803  -0.031068   0.446957  -0.000035
     6  H   -0.025631   0.403216   0.001352  -0.023743  -0.000035   0.725026
     7  H   -0.024008   0.232431  -0.032086   0.151632   0.000079  -0.011015
     8  H    0.356697  -0.040100   0.001859  -0.004269  -0.000059   0.003563
     9  H    0.364802  -0.031068   0.000011   0.001203  -0.000000  -0.003498
    10  H    0.001859  -0.004269   0.356697  -0.040099  -0.030630   0.000031
    11  H   -0.032087   0.151632  -0.024008   0.232431   0.001898  -0.007758
    12  H    0.001352  -0.023743  -0.025631   0.403216  -0.003498  -0.000472
               7          8          9         10         11         12
     1  N   -0.024008   0.356697   0.364802   0.001859  -0.032087   0.001352
     2  B    0.232431  -0.040100  -0.031068  -0.004269   0.151632  -0.023743
     3  N   -0.032086   0.001859   0.000011   0.356697  -0.024008  -0.025631
     4  B    0.151632  -0.004269   0.001203  -0.040099   0.232431   0.403216
     5  H    0.000079  -0.000059  -0.000000  -0.030630   0.001898  -0.003498
     6  H   -0.011015   0.003563  -0.003498   0.000031  -0.007758  -0.000472
     7  H    0.785934  -0.001285   0.001898  -0.000176  -0.093602  -0.007758
     8  H   -0.001285   0.475776  -0.030630   0.002011  -0.000177   0.000031
     9  H    0.001898  -0.030630   0.446957  -0.000059   0.000079  -0.000035
    10  H   -0.000176   0.002011  -0.000059   0.475776  -0.001285   0.003563
    11  H   -0.093602  -0.000177   0.000079  -0.001285   0.785935  -0.011015
    12  H   -0.007758   0.000031  -0.000035   0.003563  -0.011015   0.725026
          Atomic-Atomic Spin Densities.
               1          2          3          4          5          6
     1  N   -0.000000   0.000000  -0.000000   0.000000  -0.000000   0.000000
     2  B    0.000000  -0.000000  -0.000000  -0.000000   0.000000   0.000000
     3  N   -0.000000  -0.000000   0.000000   0.000000   0.000000  -0.000000
     4  B    0.000000  -0.000000   0.000000   0.000000   0.000000   0.000000
     5  H   -0.000000   0.000000   0.000000   0.000000  -0.000000   0.000000
     6  H    0.000000   0.000000  -0.000000   0.000000   0.000000  -0.000000
     7  H    0.000000  -0.000000  -0.000000   0.000000   0.000000  -0.000000
     8  H    0.000000   0.000000  -0.000000   0.000000  -0.000000  -0.000000
     9  H   -0.000000   0.000000  -0.000000  -0.000000   0.000000   0.000000
    10  H   -0.000000  -0.000000  -0.000000  -0.000000  -0.000000   0.000000
    11  H   -0.000000   0.000000   0.000000  -0.000000   0.000000   0.000000
    12  H    0.000000  -0.000000  -0.000000  -0.000000  -0.000000   0.000000
               7          8          9         10         11         12
     1  N    0.000000   0.000000  -0.000000  -0.000000  -0.000000   0.000000
     2  B   -0.000000   0.000000   0.000000  -0.000000   0.000000  -0.000000
     3  N   -0.000000  -0.000000  -0.000000  -0.000000   0.000000  -0.000000
     4  B    0.000000   0.000000  -0.000000  -0.000000  -0.000000  -0.000000
     5  H    0.000000  -0.000000   0.000000  -0.000000   0.000000  -0.000000
     6  H   -0.000000  -0.000000   0.000000   0.000000   0.000000   0.000000
     7  H    0.000000  -0.000000  -0.000000   0.000000   0.000000   0.000000
     8  H   -0.000000   0.000000   0.000000   0.000000   0.000000   0.000000
     9  H   -0.000000   0.000000   0.000000  -0.000000   0.000000  -0.000000
    10  H    0.000000   0.000000  -0.000000  -0.000000  -0.000000   0.000000
    11  H    0.000000   0.000000   0.000000  -0.000000  -0.000000  -0.000000
    12  H    0.000000   0.000000  -0.000000   0.000000  -0.000000   0.000000
 Mulliken charges and spin densities:
               1          2
     1  N   -0.633120  -0.000000
     2  B    0.209277  -0.000000
     3  N   -0.633120  -0.000000
     4  B    0.209277   0.000000
     5  H    0.250339  -0.000000
     6  H   -0.061036  -0.000000
     7  H   -0.002044   0.000000
     8  H    0.236584   0.000000
     9  H    0.250339   0.000000
    10  H    0.236584  -0.000000
    11  H   -0.002044  -0.000000
    12  H   -0.061036   0.000000
 Sum of Mulliken charges =  -0.00000  -0.00000
 Mulliken charges and spin densities with hydrogens summed into heavy atoms:
               1          2
     1  N   -0.146197  -0.000000
     2  B    0.146197   0.000000
     3  N   -0.146197  -0.000000
     4  B    0.146197  -0.000000
 APT charges:
               1
     1  N   -1.195909
     2  B   -0.345280
     3  N   -1.195910
     4  B   -0.345279
     5  H    0.726398
     6  H    0.267936
     7  H    0.160067
     8  H    0.386789
     9  H    0.726397
    10  H    0.386789
    11  H    0.160067
    12  H    0.267936
 Sum of APT charges =  -0.00000
 APT charges with hydrogens summed into heavy atoms:
               1
     1  N   -0.082723
     2  B    0.082723
     3  N   -0.082723
     4  B    0.082723
 Electronic spatial extent (au):  <R**2>=            385.3797
 Charge=             -0.0000 electrons
 Dipole moment (field-independent basis, Debye):
    X=              0.0000    Y=             -2.2369    Z=              0.0000  Tot=              2.2369
 Quadrupole moment (field-independent basis, Debye-Ang):
   XX=            -23.4108   YY=            -25.5857   ZZ=            -28.9449
   XY=             -0.0000   XZ=             -2.6495   YZ=             -0.0000
 Traceless Quadrupole moment (field-independent basis, Debye-Ang):
   XX=              2.5696   YY=              0.3948   ZZ=             -2.9645
   XY=             -0.0000   XZ=             -2.6495   YZ=             -0.0000
 Octapole moment (field-independent basis, Debye-Ang**2):
  XXX=              0.0001  YYY=            -21.2110  ZZZ=             -0.0000  XYY=              0.0000
  XXY=            -11.0575  XXZ=              0.0001  XZZ=             -0.0000  YZZ=             -2.0382
  YYZ=             -0.0000  XYZ=              1.1973
 Hexadecapole moment (field-independent basis, Debye-Ang**3):
 XXXX=           -270.3495 YYYY=           -129.5718 ZZZZ=            -39.9052 XXXY=             -0.0001
 XXXZ=            -20.6263 YYYX=             -0.0000 YYYZ=              0.0000 ZZZX=             -2.2146
 ZZZY=              0.0000 XXYY=            -77.6825 XXZZ=            -70.4971 YYZZ=            -30.2184
 XXYZ=             -0.0001 YYXZ=             -0.4064 ZZXY=              0.0000
 N-N= 1.119052242640D+02 E-N=-6.041370361928D+02  KE= 1.624699203076D+02
  Exact polarizability:   0.000   0.000   0.000   0.000   0.000   0.000
 Approx polarizability:  72.419   0.000  56.830  -0.101   0.000  39.618
                          Isotropic Fermi Contact Couplings
        Atom                 a.u.       MegaHertz       Gauss      10(-4) cm-1
     1  N(14)             -0.00000      -0.00000      -0.00000      -0.00000
     2  B(11)              0.00000       0.00000       0.00000       0.00000
     3  N(14)             -0.00000      -0.00000      -0.00000      -0.00000
     4  B(11)              0.00000       0.00000       0.00000       0.00000
     5  H(1)              -0.00000      -0.00000      -0.00000      -0.00000
     6  H(1)              -0.00000      -0.00000      -0.00000      -0.00000
     7  H(1)              -0.00000      -0.00000      -0.00000      -0.00000
     8  H(1)               0.00000       0.00000       0.00000       0.00000
     9  H(1)               0.00000       0.00000       0.00000       0.00000
    10  H(1)               0.00000       0.00000       0.00000       0.00000
    11  H(1)              -0.00000      -0.00000      -0.00000      -0.00000
    12  H(1)              -0.00000      -0.00000      -0.00000      -0.00000
 --------------------------------------------------------
       Center         ----  Spin Dipole Couplings  ----
                      3XX-RR        3YY-RR        3ZZ-RR
 --------------------------------------------------------
     1   Atom        0.000000      0.000000      0.000000
     2   Atom        0.000000      0.000000      0.000000
     3   Atom        0.000000      0.000000      0.000000
     4   Atom        0.000000      0.000000      0.000000
     5   Atom        0.000000      0.000000      0.000000
     6   Atom        0.000000      0.000000      0.000000
     7   Atom        0.000000      0.000000      0.000000
     8   Atom        0.000000      0.000000      0.000000
     9   Atom        0.000000      0.000000      0.000000
    10   Atom        0.000000      0.000000      0.000000
    11   Atom        0.000000      0.000000      0.000000
    12   Atom        0.000000      0.000000      0.000000
 --------------------------------------------------------
                        XY            XZ            YZ
 --------------------------------------------------------
     1   Atom        0.000000      0.000000      0.000000
     2   Atom        0.000000      0.000000      0.000000
     3   Atom        0.000000      0.000000      0.000000
     4   Atom        0.000000      0.000000      0.000000
     5   Atom        0.000000      0.000000      0.000000
     6   Atom        0.000000      0.000000      0.000000
     7   Atom        0.000000      0.000000      0.000000
     8   Atom        0.000000      0.000000      0.000000
     9   Atom        0.000000      0.000000      0.000000
    10   Atom        0.000000      0.000000      0.000000
    11   Atom        0.000000      0.000000      0.000000
    12   Atom        0.000000      0.000000      0.000000
 --------------------------------------------------------


 ---------------------------------------------------------------------------------
              Anisotropic Spin Dipole Couplings in Principal Axis System
 ---------------------------------------------------------------------------------

       Atom             a.u.   MegaHertz   Gauss  10(-4) cm-1        Axes

              Baa     0.0000     0.000     0.000     0.000  1.0000  0.0000  0.0000
     1 N(14)  Bbb     0.0000     0.000     0.000     0.000 -0.0000  1.0000  0.0000
              Bcc     0.0000     0.000     0.000     0.000  0.0000  0.0000  1.0000
 
              Baa     0.0000     0.000     0.000     0.000  1.0000  0.0000  0.0000
     2 B(11)  Bbb     0.0000     0.000     0.000     0.000 -0.0000  1.0000  0.0000
              Bcc     0.0000     0.000     0.000     0.000  0.0000  0.0000  1.0000
 
              Baa     0.0000     0.000     0.000     0.000  1.0000  0.0000  0.0000
     3 N(14)  Bbb     0.0000     0.000     0.000     0.000 -0.0000  1.0000  0.0000
              Bcc     0.0000     0.000     0.000     0.000  0.0000  0.0000  1.0000
 
              Baa     0.0000     0.000     0.000     0.000  1.0000  0.0000  0.0000
     4 B(11)  Bbb     0.0000     0.000     0.000     0.000 -0.0000  1.0000  0.0000
              Bcc     0.0000     0.000     0.000     0.000  0.0000  0.0000  1.0000
 
              Baa     0.0000     0.000     0.000     0.000  1.0000  0.0000  0.0000
     5 H(1)   Bbb     0.0000     0.000     0.000     0.000 -0.0000  1.0000  0.0000
              Bcc     0.0000     0.000     0.000     0.000  0.0000  0.0000  1.0000
 
              Baa     0.0000     0.000     0.000     0.000  1.0000  0.0000  0.0000
     6 H(1)   Bbb     0.0000     0.000     0.000     0.000 -0.0000  1.0000  0.0000
              Bcc     0.0000     0.000     0.000     0.000  0.0000  0.0000  1.0000
 
              Baa     0.0000     0.000     0.000     0.000  1.0000  0.0000  0.0000
     7 H(1)   Bbb     0.0000     0.000     0.000     0.000 -0.0000  1.0000  0.0000
              Bcc     0.0000     0.000     0.000     0.000  0.0000  0.0000  1.0000
 
              Baa     0.0000     0.000     0.000     0.000  1.0000  0.0000  0.0000
     8 H(1)   Bbb     0.0000     0.000     0.000     0.000 -0.0000  1.0000  0.0000
              Bcc     0.0000     0.000     0.000     0.000  0.0000  0.0000  1.0000
 
              Baa     0.0000     0.000     0.000     0.000  1.0000  0.0000  0.0000
     9 H(1)   Bbb     0.0000     0.000     0.000     0.000 -0.0000  1.0000  0.0000
              Bcc     0.0000     0.000     0.000     0.000  0.0000  0.0000  1.0000
 
              Baa     0.0000     0.000     0.000     0.000  1.0000  0.0000  0.0000
    10 H(1)   Bbb     0.0000     0.000     0.000     0.000 -0.0000  1.0000  0.0000
              Bcc     0.0000     0.000     0.000     0.000  0.0000  0.0000  1.0000
 
              Baa     0.0000     0.000     0.000     0.000  1.0000  0.0000  0.0000
    11 H(1)   Bbb     0.0000     0.000     0.000     0.000 -0.0000  1.0000  0.0000
              Bcc     0.0000     0.000     0.000     0.000  0.0000  0.0000  1.0000
 
              Baa     0.0000     0.000     0.000     0.000  1.0000  0.0000  0.0000
    12 H(1)   Bbb     0.0000     0.000     0.000     0.000 -0.0000  1.0000  0.0000
              Bcc     0.0000     0.000     0.000     0.000  0.0000  0.0000  1.0000
 

 ---------------------------------------------------------------------------------

 Calling FoFJK, ICntrl=    100147 FMM=F ISym2X=0 I1Cent= 0 IOpClX= 1 NMat=1 NMatS=1 NMatT=0.
 -------------------------------------------------------------------
 Center     Atomic                   Forces (Hartrees/Bohr)
 Number     Number              X              Y              Z
 -------------------------------------------------------------------
      1        7           0.000003698    0.000001063   -0.000000407
      2        5          -0.000001350   -0.000000812   -0.000000520
      3        7          -0.000006329    0.000001054    0.000001120
      4        5           0.000001469   -0.000000880    0.000000607
      5        1           0.000004878    0.000000081   -0.000001002
      6        1           0.000000441   -0.000000689    0.000000087
      7        1           0.000000937    0.000000005    0.000000619
      8        1          -0.000000121    0.000000373   -0.000000201
      9        1          -0.000002344    0.000000029    0.000000156
     10        1           0.000000128    0.000000411    0.000000263
     11        1          -0.000000980    0.000000059   -0.000000645
     12        1          -0.000000427   -0.000000695   -0.000000076
 -------------------------------------------------------------------
 Cartesian Forces:  Max     0.000006329 RMS     0.000001652
 IRC-IRC-IRC-IRC-IRC-IRC-IRC-IRC-IRC-IRC-IRC-IRC-IRC-IRC-IRC-IRC-IRC-IRC
          ******** Start new reaction path calculation ********
 Supplied step size of   0.0500 bohr.
    Integration on MW PES will use step size of   0.0528 sqrt(amu)*bohr.
 Point Number:   0          Path Number:   1
 Calculating another point on the path.
 IRC-IRC-IRC-IRC-IRC-IRC-IRC-IRC-IRC-IRC-IRC-IRC-IRC-IRC-IRC-IRC-IRC-IRC
                          Input orientation:                          
 ---------------------------------------------------------------------
 Center     Atomic      Atomic             Coordinates (Angstroms)
 Number     Number       Type             X           Y           Z
 ---------------------------------------------------------------------
      1          7           0       -1.671014   -0.554176   -0.044912
      2          5           0       -0.911297    0.662458   -0.021633
      3          7           0        1.671014   -0.554176    0.044911
      4          5           0        0.911297    0.662458    0.021633
      5          1           0        2.631955   -0.554458   -0.253698
      6          1           0       -1.483879    1.705145    0.070292
      7          1           0       -0.034077    0.790680   -0.975966
      8          1           0       -1.271072   -1.478026   -0.084410
      9          1           0       -2.631954   -0.554458    0.253709
     10          1           0        1.271072   -1.478026    0.084410
     11          1           0        0.034077    0.790680    0.975965
     12          1           0        1.483879    1.705145   -0.070293
 ---------------------------------------------------------------------
                    Distance matrix (angstroms):
                    1          2          3          4          5
     1  N    0.000000
     2  B    1.434542   0.000000
     3  N    3.343235   2.855339   0.000000
     4  B    2.855339   1.823108   1.434542   0.000000
     5  H    4.308031   3.753582   1.006268   2.125407   0.000000
     6  H    2.269984   1.193104   3.880532   2.612744   4.706471
     7  H    2.314100   1.302577   2.399617   1.380354   3.072262
     8  H    1.007478   2.171417   3.086437   3.058701   4.014381
     9  H    1.006271   2.125408   4.308031   3.753582   5.288308
    10  H    3.086437   3.058702   1.007478   2.171418   1.679076
    11  H    2.399618   1.380354   2.314101   1.302577   3.173395
    12  H    3.880532   2.612744   2.269984   1.193104   2.541166
                    6          7          8          9         10
     6  H    0.000000
     7  H    2.008190   0.000000
     8  H    3.194026   2.733506   0.000000
     9  H    2.541167   3.173399   1.679078   0.000000
    10  H    4.209814   2.823976   2.547743   4.014381   0.000000
    11  H    1.990146   1.953121   2.823976   3.072259   2.733506
    12  H    2.971086   1.990146   4.209814   4.706471   3.194026
                   11         12
    11  H    0.000000
    12  H    2.008190   0.000000
 Symmetry turned off by external request.
 Stoichiometry    B2H8N2
 Framework group  C1[X(B2H8N2)]
 Deg. of freedom    30
 Full point group                 C1      NOp   1
 Rotational constants (GHZ):          15.5335965           4.2014241           3.4016664
 Standard basis: 6-31G(d,p) (6D, 7F)
   100 basis functions,   168 primitive gaussians,   100 cartesian basis functions
    16 alpha electrons       16 beta electrons
       nuclear repulsion energy       111.9017897423 Hartrees.
 NAtoms=   12 NActive=   12 NUniq=   12 SFac= 1.00D+00 NAtFMM=   60 NAOKFM=F Big=F
 Integral buffers will be    131072 words long.
 Raffenetti 2 integral format.
 Two-electron integral symmetry is turned off.
 One-electron integrals computed using PRISM.
 NBasis=   100 RedAO= T EigKep=  4.09D-03  NBF=   100
 NBsUse=   100 1.00D-06 EigRej= -1.00D+00 NBFU=   100
 Initial guess from the checkpoint file:  "/scratch/1311842/Gau-8908.chk"
 B after Tr=     0.000000   -0.012237   -0.000000
         Rot=    1.000000    0.000000   -0.000041   -0.000000 Ang=   0.00 deg.
 Initial guess <Sx>= 0.0000 <Sy>= 0.0000 <Sz>= 0.0000 <S**2>= 0.0000 S= 0.0000
 ExpMin= 1.27D-01 ExpMax= 4.17D+03 ExpMxC= 6.27D+02 IAcc=2 IRadAn=         4 AccDes= 0.00D+00
 Harris functional with IExCor=  402 and IRadAn=       4 diagonalized for initial guess.
 HarFok:  IExCor=  402 AccDes= 0.00D+00 IRadAn=         4 IDoV= 1 UseB2=F ITyADJ=14
 ICtDFT=  3500011 ScaDFX=  1.000000  1.000000  1.000000  1.000000
 FoFCou: FMM=F IPFlag=           0 FMFlag=      100000 FMFlg1=           0
         NFxFlg=           0 DoJE=T BraDBF=F KetDBF=T FulRan=T
         wScrn=  0.000000 ICntrl=       500 IOpCl=  0 I1Cent=   200000004 NGrid=           0
         NMat0=    1 NMatS0=      1 NMatT0=    0 NMatD0=    1 NMtDS0=    0 NMtDT0=    0
 Symmetry not used in FoFCou.
 Keep R1 and R2 ints in memory in canonical form, NReq=29209654.
 Requested convergence on RMS density matrix=1.00D-08 within1024 cycles.
 Requested convergence on MAX density matrix=1.00D-06.
 Requested convergence on             energy=1.00D-06.
 No special actions if energy rises.
 Integral accuracy reduced to 1.0D-05 until final iterations.
 Initial convergence to 1.0D-05 achieved.  Increase integral accuracy.
 SCF Done:  E(UB3LYP) =  -164.078747315     A.U. after    8 cycles
            NFock=  8  Conv=0.44D-08     -V/T= 2.0099
 <Sx>= 0.0000 <Sy>= 0.0000 <Sz>= 0.0000 <S**2>=-0.0000 S=-0.0000
 <L.S>= 0.000000000000E+00
 Annihilation of the first spin contaminant:
 S**2 before annihilation    -0.0000,   after     0.0000
 DoSCS=F DFT=T ScalE2(SS,OS)=  1.000000  1.000000
 Range of M.O.s used for correlation:     1   100
 NBasis=   100 NAE=    16 NBE=    16 NFC=     0 NFV=     0
 NROrb=    100 NOA=    16 NOB=    16 NVA=    84 NVB=    84
 Symmetrizing basis deriv contribution to polar:
 IMax=3 JMax=2 DiffMx= 0.00D+00
 Calling FoFJK, ICntrl=      2147 FMM=F ISym2X=0 I1Cent= 0 IOpClX= 1 NMat=1 NMatS=1 NMatT=0.
 -------------------------------------------------------------------
 Center     Atomic                   Forces (Hartrees/Bohr)
 Number     Number              X              Y              Z
 -------------------------------------------------------------------
      1        7           0.000050308   -0.000127901   -0.000012557
      2        5          -0.000010567    0.000003049    0.000008484
      3        7          -0.000052934   -0.000127897    0.000013267
      4        5           0.000010687    0.000002981   -0.000008396
      5        1           0.000001805    0.000002405    0.000003286
      6        1           0.000005239   -0.000004306   -0.000003723
      7        1           0.000001551   -0.000000973   -0.000001527
      8        1          -0.000057444    0.000127745    0.000020184
      9        1           0.000000726    0.000002354   -0.000004131
     10        1           0.000057450    0.000127776   -0.000020122
     11        1          -0.000001594   -0.000000919    0.000001501
     12        1          -0.000005225   -0.000004312    0.000003735
 -------------------------------------------------------------------
 Cartesian Forces:  Max     0.000127901 RMS     0.000046845
 IRC-IRC-IRC-IRC-IRC-IRC-IRC-IRC-IRC-IRC-IRC-IRC-IRC-IRC-IRC-IRC-IRC-IRC
 Pt  1 Step number   1 out of a maximum of  20
 Modified Bulirsch-Stoer Extrapolation Cycles:
    EPS =    0.000010000000000
      PEZero:  N= 2 I= 1 D=  1.38D-04 Err=  8.58D-04
      PEZero:  N= 3 I= 2 D=  1.38D-04 Err=  1.54D-03
      PEZero:  N= 3 I= 1 D=  2.75D-04 Err=  1.45D-03
      PEZero:  N= 4 I= 3 D=  6.88D-05 Err=  2.72D-03
      PEZero:  N= 4 I= 2 D=  2.06D-04 Err=  2.09D-03
      PEZero:  N= 4 I= 1 D=  3.44D-04 Err=  1.64D-03
      PEZero:  N= 5 I= 4 D=  6.88D-05 Err=  4.00D-03
      PEZero:  N= 5 I= 3 D=  1.38D-04 Err=  3.27D-03
      PEZero:  N= 5 I= 2 D=  2.75D-04 Err=  2.23D-03
      PEZero:  N= 5 I= 1 D=  4.13D-04 Err=  1.68D-03
      PEZero:  N= 6 I= 5 D=  3.44D-05 Err=  6.67D-03
      PEZero:  N= 6 I= 4 D=  1.03D-04 Err=  4.90D-03
      PEZero:  N= 6 I= 3 D=  1.72D-04 Err=  3.92D-03
      PEZero:  N= 6 I= 2 D=  3.09D-04 Err=  2.74D-03
      PEZero:  N= 6 I= 1 D=  4.47D-04 Err=  2.14D-03
      PEZero:  N= 7 I= 6 D=  3.44D-05 Err=  9.52D-03
      PEZero:  N= 7 I= 5 D=  6.88D-05 Err=  7.60D-03
      PEZero:  N= 7 I= 4 D=  1.38D-04 Err=  5.15D-03
      PEZero:  N= 7 I= 3 D=  2.06D-04 Err=  3.84D-03
      PEZero:  N= 7 I= 2 D=  3.44D-04 Err=  2.53D-03
      PEZero:  N= 7 I= 1 D=  4.81D-04 Err=  1.86D-03
      PEZero:  N= 8 I= 7 D=  1.72D-05 Err=  9.20D-03
      PEZero:  N= 8 I= 6 D=  5.16D-05 Err=  2.75D-03
      PEZero:  N= 8 I= 5 D=  8.60D-05 Err=  1.26D-03
      PEZero:  N= 8 I= 4 D=  1.55D-04 Err=  2.84D-03
      PEZero:  N= 9 I= 8 D=  1.72D-05 Err=  1.09D-03
      PEZero:  N= 9 I= 7 D=  3.44D-05 Err=  7.56D-03
      PEZero:  N=10 I= 9 D=  8.60D-06 Err=  2.12D-05
      PEZero:  N=10 I= 8 D=  2.58D-05 Err=  1.06D-03
      PEZero:  N=11 I=10 D=  8.60D-06 Err=  1.37D-05
      PEZero:  N=11 I= 9 D=  1.72D-05 Err=  5.87D-07
      PEZero:  N=11 I= 8 D=  3.44D-05 Err=  1.38D-03
 Maximum DWI energy   std dev =  0.000000034 at pt     2
 Maximum DWI gradient std dev =  1.664827463 at pt     4
 CORRECTOR INTEGRATION CONVERGENCE:
   Recorrection delta-x convergence threshold:    0.010000
   Delta-x Convergence Met
 Point Number:   1          Path Number:   1
   CHANGE IN THE REACTION COORDINATE =    0.05269
   NET REACTION COORDINATE UP TO THIS POINT =    0.05269
  # OF POINTS ALONG THE PATH =   1
  # OF STEPS =   1

 PES minimum detected on this side of the pathway.
    Magnitude of the gradient =      0.0000198
 Calculation of REVERSE path complete.
 Reaction path calculation complete.
 
 Energies reported relative to the TS energy of        -164.078747
 --------------------------------------------------------------------------
    Summary of reaction path following
 --------------------------------------------------------------------------
                        Energy    RxCoord
   1                   -0.00000  -0.05269
   2                    0.00000   0.00000
 --------------------------------------------------------------------------
 
 Total number of points:                    1
 Total number of gradient calculations:     2
 Total number of Hessian calculations:      1
 IRC-IRC-IRC-IRC-IRC-IRC-IRC-IRC-IRC-IRC-IRC-IRC-IRC-IRC-IRC-IRC-IRC-IRC
                          Input orientation:                          
 ---------------------------------------------------------------------
 Center     Atomic      Atomic             Coordinates (Angstroms)
 Number     Number       Type             X           Y           Z
 ---------------------------------------------------------------------
      1          7           0       -1.671014   -0.554176   -0.044912
      2          5           0       -0.911297    0.662458   -0.021633
      3          7           0        1.671014   -0.554176    0.044911
      4          5           0        0.911297    0.662458    0.021633
      5          1           0        2.631955   -0.554458   -0.253698
      6          1           0       -1.483879    1.705145    0.070292
      7          1           0       -0.034077    0.790680   -0.975966
      8          1           0       -1.271072   -1.478026   -0.084410
      9          1           0       -2.631954   -0.554458    0.253709
     10          1           0        1.271072   -1.478026    0.084410
     11          1           0        0.034077    0.790680    0.975965
     12          1           0        1.483879    1.705145   -0.070293
 ---------------------------------------------------------------------
                    Distance matrix (angstroms):
                    1          2          3          4          5
     1  N    0.000000
     2  B    1.434542   0.000000
     3  N    3.343235   2.855339   0.000000
     4  B    2.855339   1.823108   1.434542   0.000000
     5  H    4.308031   3.753582   1.006268   2.125407   0.000000
     6  H    2.269984   1.193104   3.880532   2.612744   4.706471
     7  H    2.314100   1.302577   2.399617   1.380354   3.072262
     8  H    1.007478   2.171417   3.086437   3.058701   4.014381
     9  H    1.006271   2.125408   4.308031   3.753582   5.288308
    10  H    3.086437   3.058702   1.007478   2.171418   1.679076
    11  H    2.399618   1.380354   2.314101   1.302577   3.173395
    12  H    3.880532   2.612744   2.269984   1.193104   2.541166
                    6          7          8          9         10
     6  H    0.000000
     7  H    2.008190   0.000000
     8  H    3.194026   2.733506   0.000000
     9  H    2.541167   3.173399   1.679078   0.000000
    10  H    4.209814   2.823976   2.547743   4.014381   0.000000
    11  H    1.990146   1.953121   2.823976   3.072259   2.733506
    12  H    2.971086   1.990146   4.209814   4.706471   3.194026
                   11         12
    11  H    0.000000
    12  H    2.008190   0.000000
 Symmetry turned off by external request.
 Stoichiometry    B2H8N2
 Framework group  C1[X(B2H8N2)]
 Deg. of freedom    30
 Full point group                 C1      NOp   1
 Rotational constants (GHZ):          15.5335965           4.2014241           3.4016664

 **********************************************************************

            Population analysis using the SCF density.

 **********************************************************************

 Alpha  occ. eigenvalues --  -14.30489 -14.30489  -6.75226  -6.75206  -0.84619
 Alpha  occ. eigenvalues --   -0.83691  -0.61842  -0.49631  -0.49044  -0.46603
 Alpha  occ. eigenvalues --   -0.43376  -0.39853  -0.34430  -0.33354  -0.26688
 Alpha  occ. eigenvalues --   -0.22191
 Alpha virt. eigenvalues --    0.05098   0.05810   0.10666   0.12032   0.13739
 Alpha virt. eigenvalues --    0.16710   0.18422   0.20830   0.24010   0.28283
 Alpha virt. eigenvalues --    0.28830   0.36483   0.39309   0.43835   0.48256
 Alpha virt. eigenvalues --    0.52007   0.53922   0.60463   0.67103   0.71231
 Alpha virt. eigenvalues --    0.73659   0.75149   0.78329   0.79874   0.82347
 Alpha virt. eigenvalues --    0.85667   0.85698   0.87456   0.90232   0.92977
 Alpha virt. eigenvalues --    0.96407   0.97102   1.09913   1.11528   1.16356
 Alpha virt. eigenvalues --    1.23379   1.34102   1.36316   1.38094   1.44759
 Alpha virt. eigenvalues --    1.45672   1.55842   1.60059   1.61624   1.67914
 Alpha virt. eigenvalues --    1.83650   1.84413   1.85425   1.99914   2.01136
 Alpha virt. eigenvalues --    2.09981   2.14304   2.16696   2.19677   2.22196
 Alpha virt. eigenvalues --    2.26850   2.34718   2.37591   2.40058   2.51999
 Alpha virt. eigenvalues --    2.52893   2.53357   2.59495   2.60279   2.62156
 Alpha virt. eigenvalues --    2.66733   2.69926   2.75526   2.81197   2.82395
 Alpha virt. eigenvalues --    2.95242   2.96217   3.03317   3.07492   3.21025
 Alpha virt. eigenvalues --    3.22441   3.30209   3.36403   3.52354   3.60810
 Alpha virt. eigenvalues --    3.61349   3.80929   4.24798   4.27762
  Beta  occ. eigenvalues --  -14.30489 -14.30489  -6.75226  -6.75206  -0.84619
  Beta  occ. eigenvalues --   -0.83691  -0.61842  -0.49631  -0.49044  -0.46603
  Beta  occ. eigenvalues --   -0.43376  -0.39853  -0.34430  -0.33354  -0.26688
  Beta  occ. eigenvalues --   -0.22191
  Beta virt. eigenvalues --    0.05098   0.05810   0.10666   0.12032   0.13739
  Beta virt. eigenvalues --    0.16710   0.18422   0.20830   0.24010   0.28283
  Beta virt. eigenvalues --    0.28830   0.36483   0.39309   0.43835   0.48256
  Beta virt. eigenvalues --    0.52007   0.53922   0.60463   0.67103   0.71231
  Beta virt. eigenvalues --    0.73659   0.75149   0.78329   0.79874   0.82347
  Beta virt. eigenvalues --    0.85667   0.85698   0.87456   0.90232   0.92977
  Beta virt. eigenvalues --    0.96407   0.97102   1.09913   1.11528   1.16356
  Beta virt. eigenvalues --    1.23379   1.34102   1.36316   1.38094   1.44759
  Beta virt. eigenvalues --    1.45672   1.55842   1.60059   1.61624   1.67914
  Beta virt. eigenvalues --    1.83650   1.84413   1.85425   1.99914   2.01136
  Beta virt. eigenvalues --    2.09981   2.14304   2.16696   2.19677   2.22196
  Beta virt. eigenvalues --    2.26850   2.34718   2.37591   2.40058   2.51999
  Beta virt. eigenvalues --    2.52893   2.53357   2.59495   2.60279   2.62156
  Beta virt. eigenvalues --    2.66733   2.69926   2.75526   2.81197   2.82395
  Beta virt. eigenvalues --    2.95242   2.96217   3.03317   3.07492   3.21025
  Beta virt. eigenvalues --    3.22441   3.30209   3.36403   3.52354   3.60810
  Beta virt. eigenvalues --    3.61349   3.80929   4.24798   4.27762
          Condensed to atoms (all electrons):
               1          2          3          4          5          6
     1  N    6.547697   0.455316  -0.002348  -0.009865   0.000011  -0.025688
     2  B    0.455316   3.502899  -0.009865   0.153435   0.001202   0.403290
     3  N   -0.002348  -0.009865   6.547696   0.455316   0.364655   0.001352
     4  B   -0.009865   0.153435   0.455316   3.502899  -0.031037  -0.023771
     5  H    0.000011   0.001202   0.364655  -0.031037   0.447116  -0.000036
     6  H   -0.025688   0.403290   0.001352  -0.023771  -0.000036   0.724830
     7  H   -0.024231   0.230172  -0.031932   0.153738   0.000086  -0.010913
     8  H    0.356592  -0.040173   0.001787  -0.004295  -0.000060   0.003562
     9  H    0.364654  -0.031037   0.000011   0.001202  -0.000000  -0.003521
    10  H    0.001787  -0.004295   0.356592  -0.040173  -0.030628   0.000030
    11  H   -0.031932   0.153738  -0.024231   0.230172   0.001892  -0.007769
    12  H    0.001352  -0.023771  -0.025688   0.403290  -0.003521  -0.000498
               7          8          9         10         11         12
     1  N   -0.024231   0.356592   0.364654   0.001787  -0.031932   0.001352
     2  B    0.230172  -0.040173  -0.031037  -0.004295   0.153738  -0.023771
     3  N   -0.031932   0.001787   0.000011   0.356592  -0.024231  -0.025688
     4  B    0.153738  -0.004295   0.001202  -0.040173   0.230172   0.403290
     5  H    0.000086  -0.000060  -0.000000  -0.030628   0.001892  -0.003521
     6  H   -0.010913   0.003562  -0.003521   0.000030  -0.007769  -0.000498
     7  H    0.785798  -0.001133   0.001892  -0.000287  -0.093778  -0.007769
     8  H   -0.001133   0.476141  -0.030628   0.002016  -0.000287   0.000030
     9  H    0.001892  -0.030628   0.447117  -0.000060   0.000086  -0.000036
    10  H   -0.000287   0.002016  -0.000060   0.476141  -0.001133   0.003562
    11  H   -0.093778  -0.000287   0.000086  -0.001133   0.785799  -0.010913
    12  H   -0.007769   0.000030  -0.000036   0.003562  -0.010913   0.724830
          Atomic-Atomic Spin Densities.
               1          2          3          4          5          6
     1  N   -0.000000  -0.000000  -0.000000   0.000000  -0.000000  -0.000000
     2  B   -0.000000  -0.000000   0.000000   0.000000   0.000000  -0.000000
     3  N   -0.000000   0.000000   0.000000  -0.000000  -0.000000   0.000000
     4  B    0.000000   0.000000  -0.000000  -0.000000   0.000000   0.000000
     5  H   -0.000000   0.000000  -0.000000   0.000000  -0.000000   0.000000
     6  H   -0.000000  -0.000000   0.000000   0.000000   0.000000   0.000000
     7  H    0.000000   0.000000  -0.000000  -0.000000  -0.000000  -0.000000
     8  H   -0.000000  -0.000000  -0.000000  -0.000000   0.000000   0.000000
     9  H   -0.000000   0.000000  -0.000000  -0.000000  -0.000000   0.000000
    10  H   -0.000000  -0.000000   0.000000  -0.000000  -0.000000   0.000000
    11  H   -0.000000   0.000000   0.000000  -0.000000   0.000000   0.000000
    12  H    0.000000   0.000000   0.000000   0.000000   0.000000  -0.000000
               7          8          9         10         11         12
     1  N    0.000000  -0.000000  -0.000000  -0.000000  -0.000000   0.000000
     2  B    0.000000  -0.000000   0.000000  -0.000000   0.000000   0.000000
     3  N   -0.000000  -0.000000  -0.000000   0.000000   0.000000   0.000000
     4  B   -0.000000  -0.000000  -0.000000  -0.000000  -0.000000   0.000000
     5  H   -0.000000   0.000000  -0.000000  -0.000000   0.000000   0.000000
     6  H   -0.000000   0.000000   0.000000   0.000000   0.000000  -0.000000
     7  H    0.000000  -0.000000  -0.000000   0.000000  -0.000000   0.000000
     8  H   -0.000000   0.000000   0.000000   0.000000   0.000000   0.000000
     9  H   -0.000000   0.000000   0.000000   0.000000   0.000000   0.000000
    10  H    0.000000   0.000000   0.000000   0.000000   0.000000  -0.000000
    11  H   -0.000000   0.000000   0.000000   0.000000  -0.000000  -0.000000
    12  H    0.000000   0.000000   0.000000  -0.000000  -0.000000  -0.000000
 Mulliken charges and spin densities:
               1          2
     1  N   -0.633346  -0.000000
     2  B    0.209090  -0.000000
     3  N   -0.633346   0.000000
     4  B    0.209090  -0.000000
     5  H    0.250320  -0.000000
     6  H   -0.060869   0.000000
     7  H   -0.001642   0.000000
     8  H    0.236447   0.000000
     9  H    0.250320   0.000000
    10  H    0.236447   0.000000
    11  H   -0.001642  -0.000000
    12  H   -0.060869   0.000000
 Sum of Mulliken charges =  -0.00000  -0.00000
 Mulliken charges and spin densities with hydrogens summed into heavy atoms:
               1          2
     1  N   -0.146578  -0.000000
     2  B    0.146578   0.000000
     3  N   -0.146578   0.000000
     4  B    0.146578  -0.000000
 APT charges:
               1
     1  N   -1.196403
     2  B   -0.345226
     3  N   -1.196404
     4  B   -0.345226
     5  H    0.726072
     6  H    0.267291
     7  H    0.160633
     8  H    0.387635
     9  H    0.726071
    10  H    0.387634
    11  H    0.160633
    12  H    0.267290
 Sum of APT charges =  -0.00000
 APT charges with hydrogens summed into heavy atoms:
               1
     1  N   -0.082698
     2  B    0.082697
     3  N   -0.082698
     4  B    0.082698
 Electronic spatial extent (au):  <R**2>=            385.4754
 Charge=             -0.0000 electrons
 Dipole moment (field-independent basis, Debye):
    X=              0.0000    Y=             -2.2222    Z=              0.0000  Tot=              2.2222
 Quadrupole moment (field-independent basis, Debye-Ang):
   XX=            -23.4221   YY=            -25.5623   ZZ=            -28.9595
   XY=             -0.0000   XZ=             -2.7064   YZ=             -0.0000
 Traceless Quadrupole moment (field-independent basis, Debye-Ang):
   XX=              2.5592   YY=              0.4190   ZZ=             -2.9782
   XY=             -0.0000   XZ=             -2.7064   YZ=             -0.0000
 Octapole moment (field-independent basis, Debye-Ang**2):
  XXX=              0.0001  YYY=            -20.6869  ZZZ=             -0.0000  XYY=              0.0000
  XXY=            -10.7955  XXZ=              0.0001  XZZ=             -0.0000  YZZ=             -1.8179
  YYZ=              0.0000  XYZ=              1.3222
 Hexadecapole moment (field-independent basis, Debye-Ang**3):
 XXXX=           -270.4134 YYYY=           -128.9252 ZZZZ=            -39.8635 XXXY=             -0.0001
 XXXZ=            -20.6039 YYYX=             -0.0000 YYYZ=              0.0000 ZZZX=             -2.2226
 ZZZY=              0.0000 XXYY=            -77.6497 XXZZ=            -70.5980 YYZZ=            -30.1978
 XXYZ=             -0.0001 YYXZ=             -0.5884 ZZXY=              0.0000
 N-N= 1.119017897423D+02 E-N=-6.041280420898D+02  KE= 1.624697405474D+02
  Exact polarizability:   0.000   0.000   0.000   0.000   0.000   0.000
 Approx polarizability:  72.425   0.000  56.820  -0.049   0.000  39.584
                          Isotropic Fermi Contact Couplings
        Atom                 a.u.       MegaHertz       Gauss      10(-4) cm-1
     1  N(14)             -0.00000      -0.00000      -0.00000      -0.00000
     2  B(11)             -0.00000      -0.00000      -0.00000      -0.00000
     3  N(14)             -0.00000      -0.00000      -0.00000      -0.00000
     4  B(11)             -0.00000      -0.00000      -0.00000      -0.00000
     5  H(1)               0.00000       0.00000       0.00000       0.00000
     6  H(1)               0.00000       0.00000       0.00000       0.00000
     7  H(1)               0.00000       0.00000       0.00000       0.00000
     8  H(1)              -0.00000      -0.00000      -0.00000      -0.00000
     9  H(1)              -0.00000      -0.00000      -0.00000      -0.00000
    10  H(1)              -0.00000      -0.00000      -0.00000      -0.00000
    11  H(1)               0.00000       0.00000       0.00000       0.00000
    12  H(1)              -0.00000      -0.00000      -0.00000      -0.00000
 --------------------------------------------------------
       Center         ----  Spin Dipole Couplings  ----
                      3XX-RR        3YY-RR        3ZZ-RR
 --------------------------------------------------------
     1   Atom        0.000000      0.000000      0.000000
     2   Atom        0.000000      0.000000      0.000000
     3   Atom        0.000000      0.000000      0.000000
     4   Atom        0.000000      0.000000      0.000000
     5   Atom        0.000000      0.000000      0.000000
     6   Atom        0.000000      0.000000      0.000000
     7   Atom        0.000000      0.000000      0.000000
     8   Atom        0.000000      0.000000      0.000000
     9   Atom        0.000000      0.000000      0.000000
    10   Atom        0.000000      0.000000      0.000000
    11   Atom        0.000000      0.000000      0.000000
    12   Atom        0.000000      0.000000      0.000000
 --------------------------------------------------------
                        XY            XZ            YZ
 --------------------------------------------------------
     1   Atom        0.000000      0.000000      0.000000
     2   Atom        0.000000      0.000000      0.000000
     3   Atom        0.000000      0.000000      0.000000
     4   Atom        0.000000      0.000000      0.000000
     5   Atom        0.000000      0.000000      0.000000
     6   Atom        0.000000      0.000000      0.000000
     7   Atom        0.000000      0.000000      0.000000
     8   Atom        0.000000      0.000000      0.000000
     9   Atom        0.000000      0.000000      0.000000
    10   Atom        0.000000      0.000000      0.000000
    11   Atom        0.000000      0.000000      0.000000
    12   Atom        0.000000      0.000000      0.000000
 --------------------------------------------------------


 ---------------------------------------------------------------------------------
              Anisotropic Spin Dipole Couplings in Principal Axis System
 ---------------------------------------------------------------------------------

       Atom             a.u.   MegaHertz   Gauss  10(-4) cm-1        Axes

              Baa     0.0000     0.000     0.000     0.000  1.0000  0.0000  0.0000
     1 N(14)  Bbb     0.0000     0.000     0.000     0.000 -0.0000  1.0000  0.0000
              Bcc     0.0000     0.000     0.000     0.000  0.0000  0.0000  1.0000
 
              Baa     0.0000     0.000     0.000     0.000  1.0000  0.0000  0.0000
     2 B(11)  Bbb     0.0000     0.000     0.000     0.000 -0.0000  1.0000  0.0000
              Bcc     0.0000     0.000     0.000     0.000  0.0000  0.0000  1.0000
 
              Baa     0.0000     0.000     0.000     0.000  1.0000  0.0000  0.0000
     3 N(14)  Bbb     0.0000     0.000     0.000     0.000 -0.0000  1.0000  0.0000
              Bcc     0.0000     0.000     0.000     0.000  0.0000  0.0000  1.0000
 
              Baa     0.0000     0.000     0.000     0.000  1.0000  0.0000  0.0000
     4 B(11)  Bbb     0.0000     0.000     0.000     0.000 -0.0000  1.0000  0.0000
              Bcc     0.0000     0.000     0.000     0.000  0.0000  0.0000  1.0000
 
              Baa     0.0000     0.000     0.000     0.000  1.0000  0.0000  0.0000
     5 H(1)   Bbb     0.0000     0.000     0.000     0.000 -0.0000  1.0000  0.0000
              Bcc     0.0000     0.000     0.000     0.000  0.0000  0.0000  1.0000
 
              Baa     0.0000     0.000     0.000     0.000  1.0000  0.0000  0.0000
     6 H(1)   Bbb     0.0000     0.000     0.000     0.000 -0.0000  1.0000  0.0000
              Bcc     0.0000     0.000     0.000     0.000  0.0000  0.0000  1.0000
 
              Baa     0.0000     0.000     0.000     0.000  1.0000  0.0000  0.0000
     7 H(1)   Bbb     0.0000     0.000     0.000     0.000 -0.0000  1.0000  0.0000
              Bcc     0.0000     0.000     0.000     0.000  0.0000  0.0000  1.0000
 
              Baa     0.0000     0.000     0.000     0.000  1.0000  0.0000  0.0000
     8 H(1)   Bbb     0.0000     0.000     0.000     0.000 -0.0000  1.0000  0.0000
              Bcc     0.0000     0.000     0.000     0.000  0.0000  0.0000  1.0000
 
              Baa     0.0000     0.000     0.000     0.000  1.0000  0.0000  0.0000
     9 H(1)   Bbb     0.0000     0.000     0.000     0.000 -0.0000  1.0000  0.0000
              Bcc     0.0000     0.000     0.000     0.000  0.0000  0.0000  1.0000
 
              Baa     0.0000     0.000     0.000     0.000  1.0000  0.0000  0.0000
    10 H(1)   Bbb     0.0000     0.000     0.000     0.000 -0.0000  1.0000  0.0000
              Bcc     0.0000     0.000     0.000     0.000  0.0000  0.0000  1.0000
 
              Baa     0.0000     0.000     0.000     0.000  1.0000  0.0000  0.0000
    11 H(1)   Bbb     0.0000     0.000     0.000     0.000 -0.0000  1.0000  0.0000
              Bcc     0.0000     0.000     0.000     0.000  0.0000  0.0000  1.0000
 
              Baa     0.0000     0.000     0.000     0.000  1.0000  0.0000  0.0000
    12 H(1)   Bbb     0.0000     0.000     0.000     0.000 -0.0000  1.0000  0.0000
              Bcc     0.0000     0.000     0.000     0.000  0.0000  0.0000  1.0000
 

 ---------------------------------------------------------------------------------


 This type of calculation cannot be archived.


 THE SCIENTIFIC THEORIST IS NOT TO BE ENVIED. FOR NATURE, OR MORE
 PRECISELY EXPERIMENT, IS AN INEXORABLE AND NOT VERY FRIENDLY JUDGE OF HIS
 WORK.  IT NEVER SAYS "YES" TO A THEORY. IN THE MOST FAVORABLE CASES
 IT SAYS "MAYBE", AND IN THE GREAT MAJORITY OF CASES SIMPLY "NO"...
 PROBABLY EVERY THEORY WILL SOME DAY EXPERIENCE ITS "NO" - MOST
 THEORIES, SOON AFTER CONCEPTION.  -- A.EINSTEIN, NOV 11, 1922.
 Job cpu time:       0 days  0 hours 14 minutes 12.0 seconds.
 Elapsed time:       0 days  0 hours  3 minutes 35.6 seconds.
 File lengths (MBytes):  RWF=     29 Int=      0 D2E=      0 Chk=      4 Scr=      1
 Normal termination of Gaussian 16 at Fri Jul  3 18:31:03 2020.
