 Entering Gaussian System, Link 0=/opt/gaussian/g16/legacy/g16/g16
 Initial command:
 /opt/gaussian/g16/legacy/g16/l1.exe "/scratch/1311849/Gau-12449.inp" -scrdir="/scratch/1311849/"
 Entering Link 1 = /opt/gaussian/g16/legacy/g16/l1.exe PID=     12470.
  
 Copyright (c) 1988,1990,1992,1993,1995,1998,2003,2009,2016,
            Gaussian, Inc.  All Rights Reserved.
  
 This is part of the Gaussian(R) 16 program.  It is based on
 the Gaussian(R) 09 system (copyright 2009, Gaussian, Inc.),
 the Gaussian(R) 03 system (copyright 2003, Gaussian, Inc.),
 the Gaussian(R) 98 system (copyright 1998, Gaussian, Inc.),
 the Gaussian(R) 94 system (copyright 1995, Gaussian, Inc.),
 the Gaussian 92(TM) system (copyright 1992, Gaussian, Inc.),
 the Gaussian 90(TM) system (copyright 1990, Gaussian, Inc.),
 the Gaussian 88(TM) system (copyright 1988, Gaussian, Inc.),
 the Gaussian 86(TM) system (copyright 1986, Carnegie Mellon
 University), and the Gaussian 82(TM) system (copyright 1983,
 Carnegie Mellon University). Gaussian is a federally registered
 trademark of Gaussian, Inc.
  
 This software contains proprietary and confidential information,
 including trade secrets, belonging to Gaussian, Inc.
  
 This software is provided under written license and may be
 used, copied, transmitted, or stored only in accord with that
 written license.
  
 The following legend is applicable only to US Government
 contracts under FAR:
  
                    RESTRICTED RIGHTS LEGEND
  
 Use, reproduction and disclosure by the US Government is
 subject to restrictions as set forth in subparagraphs (a)
 and (c) of the Commercial Computer Software - Restricted
 Rights clause in FAR 52.227-19.
  
 Gaussian, Inc.
 340 Quinnipiac St., Bldg. 40, Wallingford CT 06492
  
  
 ---------------------------------------------------------------
 Warning -- This program may not be used in any manner that
 competes with the business of Gaussian, Inc. or will provide
 assistance to any competitor of Gaussian, Inc.  The licensee
 of this program is prohibited from giving any competitor of
 Gaussian, Inc. access to this program.  By using this program,
 the user acknowledges that Gaussian, Inc. is engaged in the
 business of creating and licensing software in the field of
 computational chemistry and represents and warrants to the
 licensee that it is not a competitor of Gaussian, Inc. and that
 it will not use this program in any manner prohibited above.
 ---------------------------------------------------------------
  

 Cite this work as:
 Gaussian 16, Revision A.03,
 M. J. Frisch, G. W. Trucks, H. B. Schlegel, G. E. Scuseria, 
 M. A. Robb, J. R. Cheeseman, G. Scalmani, V. Barone, 
 G. A. Petersson, H. Nakatsuji, X. Li, M. Caricato, A. V. Marenich, 
 J. Bloino, B. G. Janesko, R. Gomperts, B. Mennucci, H. P. Hratchian, 
 J. V. Ortiz, A. F. Izmaylov, J. L. Sonnenberg, D. Williams-Young, 
 F. Ding, F. Lipparini, F. Egidi, J. Goings, B. Peng, A. Petrone, 
 T. Henderson, D. Ranasinghe, V. G. Zakrzewski, J. Gao, N. Rega, 
 G. Zheng, W. Liang, M. Hada, M. Ehara, K. Toyota, R. Fukuda, 
 J. Hasegawa, M. Ishida, T. Nakajima, Y. Honda, O. Kitao, H. Nakai, 
 T. Vreven, K. Throssell, J. A. Montgomery, Jr., J. E. Peralta, 
 F. Ogliaro, M. J. Bearpark, J. J. Heyd, E. N. Brothers, K. N. Kudin, 
 V. N. Staroverov, T. A. Keith, R. Kobayashi, J. Normand, 
 K. Raghavachari, A. P. Rendell, J. C. Burant, S. S. Iyengar, 
 J. Tomasi, M. Cossi, J. M. Millam, M. Klene, C. Adamo, R. Cammi, 
 J. W. Ochterski, R. L. Martin, K. Morokuma, O. Farkas, 
 J. B. Foresman, and D. J. Fox, Gaussian, Inc., Wallingford CT, 2016.
 
 ******************************************
 Gaussian 16:  EM64L-G16RevA.03 25-Dec-2016
                 3-Jul-2020 
 ******************************************
 %mem=16GB
 %nprocshared=4
 Will use up to    4 processors via shared memory.
 ------------------------------------------------
 #opt freq ub3lyp/6-31G(d,p) scf=(maxcycles=1024)
 ------------------------------------------------
 1/18=20,19=15,26=3,38=1/1,3;
 2/9=110,12=2,17=6,18=5,40=1/2;
 3/5=1,6=6,7=101,11=2,25=1,30=1,71=1,74=-5,116=2/1,2,3;
 4//1;
 5/5=2,7=1024,38=5/2;
 6/7=2,8=2,9=2,10=2,28=1/1;
 7//1,2,3,16;
 1/18=20,19=15,26=3/3(2);
 2/9=110/2;
 99//99;
 2/9=110/2;
 3/5=1,6=6,7=101,11=2,25=1,30=1,71=1,74=-5,116=2/1,2,3;
 4/5=5,16=3,69=1/1;
 5/5=2,7=1024,38=5/2;
 7//1,2,3,16;
 1/18=20,19=15,26=3/3(-5);
 2/9=110/2;
 6/7=2,8=2,9=2,10=2,19=2,28=1/1;
 99/9=1/99;
 ---------------
 something title
 ---------------
 Symbolic Z-matrix:
 Charge =  0 Multiplicity = 1
 N                    -1.63834  -0.55617  -0.03771 
 B                    -0.9393    0.68966  -0.05202 
 N                     1.63828  -0.55621   0.03788 
 B                     0.93958   0.68949   0.05198 
 H                     2.54572  -0.65865  -0.3913 
 H                    -1.52049   1.70896   0.18689 
 H                    -0.09675   0.83667  -0.98041 
 H                    -1.2418   -1.4233   -0.36843 
 H                    -2.54585  -0.65832   0.39151 
 H                     1.24104  -1.42346   0.3675 
 H                     0.09627   0.83625   0.97982 
 H                     1.5209    1.70879  -0.18657 
 

 GradGradGradGradGradGradGradGradGradGradGradGradGradGradGradGradGradGrad
 Berny optimization.
 Initialization pass.
                           ----------------------------
                           !    Initial Parameters    !
                           ! (Angstroms and Degrees)  !
 --------------------------                            --------------------------
 ! Name  Definition              Value          Derivative Info.                !
 --------------------------------------------------------------------------------
 ! R1    R(1,2)                  1.4286         estimate D2E/DX2                !
 ! R2    R(1,8)                  1.0092         estimate D2E/DX2                !
 ! R3    R(1,9)                  1.0091         estimate D2E/DX2                !
 ! R4    R(2,4)                  1.8818         estimate D2E/DX2                !
 ! R5    R(2,6)                  1.1974         estimate D2E/DX2                !
 ! R6    R(2,7)                  1.2623         estimate D2E/DX2                !
 ! R7    R(3,4)                  1.4283         estimate D2E/DX2                !
 ! R8    R(3,5)                  1.009          estimate D2E/DX2                !
 ! R9    R(3,10)                 1.0092         estimate D2E/DX2                !
 ! R10   R(4,11)                 1.2624         estimate D2E/DX2                !
 ! R11   R(4,12)                 1.1974         estimate D2E/DX2                !
 ! A1    A(2,1,8)              123.6233         estimate D2E/DX2                !
 ! A2    A(2,1,9)              122.1813         estimate D2E/DX2                !
 ! A3    A(8,1,9)              113.9399         estimate D2E/DX2                !
 ! A4    A(1,2,4)              119.2047         estimate D2E/DX2                !
 ! A5    A(1,2,6)              120.1876         estimate D2E/DX2                !
 ! A6    A(1,2,7)              115.8189         estimate D2E/DX2                !
 ! A7    A(4,2,6)              118.273          estimate D2E/DX2                !
 ! A8    A(4,2,7)               51.2597         estimate D2E/DX2                !
 ! A9    A(6,2,7)              111.8125         estimate D2E/DX2                !
 ! A10   A(4,3,5)              122.1855         estimate D2E/DX2                !
 ! A11   A(4,3,10)             123.619          estimate D2E/DX2                !
 ! A12   A(5,3,10)             113.9319         estimate D2E/DX2                !
 ! A13   A(2,4,3)              119.2063         estimate D2E/DX2                !
 ! A14   A(2,4,11)              51.2149         estimate D2E/DX2                !
 ! A15   A(2,4,12)             118.2714         estimate D2E/DX2                !
 ! A16   A(3,4,11)             115.8126         estimate D2E/DX2                !
 ! A17   A(3,4,12)             120.1956         estimate D2E/DX2                !
 ! A18   A(11,4,12)            111.8253         estimate D2E/DX2                !
 ! D1    D(8,1,2,4)            -27.5437         estimate D2E/DX2                !
 ! D2    D(8,1,2,6)            170.0978         estimate D2E/DX2                !
 ! D3    D(8,1,2,7)             30.7223         estimate D2E/DX2                !
 ! D4    D(9,1,2,4)            146.2932         estimate D2E/DX2                !
 ! D5    D(9,1,2,6)            -16.0653         estimate D2E/DX2                !
 ! D6    D(9,1,2,7)           -155.4408         estimate D2E/DX2                !
 ! D7    D(1,2,4,3)              4.8546         estimate D2E/DX2                !
 ! D8    D(1,2,4,11)           -96.1407         estimate D2E/DX2                !
 ! D9    D(1,2,4,12)           167.5803         estimate D2E/DX2                !
 ! D10   D(6,2,4,3)            167.5504         estimate D2E/DX2                !
 ! D11   D(6,2,4,11)            66.5551         estimate D2E/DX2                !
 ! D12   D(6,2,4,12)           -29.7239         estimate D2E/DX2                !
 ! D13   D(7,2,4,3)            -96.1689         estimate D2E/DX2                !
 ! D14   D(7,2,4,11)           162.8357         estimate D2E/DX2                !
 ! D15   D(7,2,4,12)            66.5568         estimate D2E/DX2                !
 ! D16   D(5,3,4,2)            146.2917         estimate D2E/DX2                !
 ! D17   D(5,3,4,11)          -155.4964         estimate D2E/DX2                !
 ! D18   D(5,3,4,12)           -16.0956         estimate D2E/DX2                !
 ! D19   D(10,3,4,2)           -27.4495         estimate D2E/DX2                !
 ! D20   D(10,3,4,11)           30.7623         estimate D2E/DX2                !
 ! D21   D(10,3,4,12)          170.1632         estimate D2E/DX2                !
 --------------------------------------------------------------------------------
 Trust Radius=3.00D-01 FncErr=1.00D-07 GrdErr=1.00D-06 EigMax=2.50D+02 EigMin=1.00D-04
 Number of steps in this run=     60 maximum allowed number of steps=    100.
 GradGradGradGradGradGradGradGradGradGradGradGradGradGradGradGradGradGrad

                          Input orientation:                          
 ---------------------------------------------------------------------
 Center     Atomic      Atomic             Coordinates (Angstroms)
 Number     Number       Type             X           Y           Z
 ---------------------------------------------------------------------
      1          7           0       -1.638340   -0.556170   -0.037710
      2          5           0       -0.939300    0.689660   -0.052020
      3          7           0        1.638280   -0.556210    0.037880
      4          5           0        0.939580    0.689490    0.051980
      5          1           0        2.545720   -0.658650   -0.391300
      6          1           0       -1.520490    1.708960    0.186890
      7          1           0       -0.096750    0.836670   -0.980410
      8          1           0       -1.241800   -1.423300   -0.368430
      9          1           0       -2.545850   -0.658320    0.391510
     10          1           0        1.241040   -1.423460    0.367500
     11          1           0        0.096270    0.836250    0.979820
     12          1           0        1.520900    1.708790   -0.186570
 ---------------------------------------------------------------------
                    Distance matrix (angstroms):
                    1          2          3          4          5
     1  N    0.000000
     2  B    1.428620   0.000000
     3  N    3.277492   2.864296   0.000000
     4  B    2.864504   1.881756   1.428338   0.000000
     5  H    4.200225   3.752121   1.009028   2.143284   0.000000
     6  H    2.279287   1.197427   3.889862   2.666358   4.740669
     7  H    2.281488   1.262304   2.446908   1.470194   3.092843
     8  H    1.009225   2.157828   3.035094   3.065786   3.864003
     9  H    1.009078   2.143542   4.200289   3.752345   5.151396
    10  H    3.034340   3.065152   1.009243   2.157542   1.692011
    11  H    2.446032   1.469213   2.281226   1.262378   3.180330
    12  H    3.890116   2.666330   2.279118   1.197419   2.587845
                    6          7          8          9         10
     6  H    0.000000
     7  H    2.037281   0.000000
     8  H    3.193290   2.606362   0.000000
     9  H    2.587904   3.180448   1.692114   0.000000
    10  H    4.179799   2.952072   2.589611   3.863490   0.000000
    11  H    2.001068   1.969710   2.951910   3.092029   2.606094
    12  H    3.064233   2.001891   4.180379   4.740869   3.193165
                   11         12
    11  H    0.000000
    12  H    2.037489   0.000000
 Stoichiometry    B2H8N2
 Framework group  C1[X(B2H8N2)]
 Deg. of freedom    30
 Full point group                 C1      NOp   1
 Largest Abelian subgroup         C1      NOp   1
 Largest concise Abelian subgroup C1      NOp   1
                         Standard orientation:                         
 ---------------------------------------------------------------------
 Center     Atomic      Atomic             Coordinates (Angstroms)
 Number     Number       Type             X           Y           Z
 ---------------------------------------------------------------------
      1          7           0        1.638279   -0.557294    0.040315
      2          5           0        0.939216    0.688535    0.053518
      3          7           0       -1.638216   -0.557338   -0.040490
      4          5           0       -0.939497    0.688363   -0.053473
      5          1           0       -2.546338   -0.659781    0.387245
      6          1           0        1.520784    1.707837   -0.184463
      7          1           0        0.095189    0.835540    0.980566
      8          1           0        1.241215   -1.424426    0.370400
      9          1           0        2.546472   -0.659440   -0.387460
     10          1           0       -1.240451   -1.424586   -0.369480
     11          1           0       -0.094711    0.835128   -0.979969
     12          1           0       -1.521197    1.707661    0.184156
 ---------------------------------------------------------------------
 Rotational constants (GHZ):          14.8401520           4.2777870           3.4414325
 Standard basis: 6-31G(d,p) (6D, 7F)
 There are   100 symmetry adapted cartesian basis functions of A   symmetry.
 There are   100 symmetry adapted basis functions of A   symmetry.
   100 basis functions,   168 primitive gaussians,   100 cartesian basis functions
    16 alpha electrons       16 beta electrons
       nuclear repulsion energy       111.7305668040 Hartrees.
 NAtoms=   12 NActive=   12 NUniq=   12 SFac= 1.00D+00 NAtFMM=   60 NAOKFM=F Big=F
 Integral buffers will be    131072 words long.
 Raffenetti 2 integral format.
 Two-electron integral symmetry is turned on.
 One-electron integrals computed using PRISM.
 NBasis=   100 RedAO= T EigKep=  4.67D-03  NBF=   100
 NBsUse=   100 1.00D-06 EigRej= -1.00D+00 NBFU=   100
 ExpMin= 1.27D-01 ExpMax= 4.17D+03 ExpMxC= 6.27D+02 IAcc=3 IRadAn=         5 AccDes= 0.00D+00
 Harris functional with IExCor=  402 and IRadAn=       5 diagonalized for initial guess.
 HarFok:  IExCor=  402 AccDes= 0.00D+00 IRadAn=         5 IDoV= 1 UseB2=F ITyADJ=14
 ICtDFT=  3500011 ScaDFX=  1.000000  1.000000  1.000000  1.000000
 FoFCou: FMM=F IPFlag=           0 FMFlag=      100000 FMFlg1=           0
         NFxFlg=           0 DoJE=T BraDBF=F KetDBF=T FulRan=T
         wScrn=  0.000000 ICntrl=       500 IOpCl=  0 I1Cent=   200000004 NGrid=           0
         NMat0=    1 NMatS0=      1 NMatT0=    0 NMatD0=    1 NMtDS0=    0 NMtDT0=    0
 Petite list used in FoFCou.
 Initial guess <Sx>= 0.0000 <Sy>= 0.0000 <Sz>= 0.0000 <S**2>=-0.0000 S=-0.0000
 Keep R1 and R2 ints in memory in canonical form, NReq=29209870.
 Requested convergence on RMS density matrix=1.00D-08 within1024 cycles.
 Requested convergence on MAX density matrix=1.00D-06.
 Requested convergence on             energy=1.00D-06.
 No special actions if energy rises.
 Integral accuracy reduced to 1.0D-05 until final iterations.
 Initial convergence to 1.0D-05 achieved.  Increase integral accuracy.
 SCF Done:  E(UB3LYP) =  -164.078480207     A.U. after   12 cycles
            NFock= 12  Conv=0.19D-08     -V/T= 2.0101
 <Sx>= 0.0000 <Sy>= 0.0000 <Sz>= 0.0000 <S**2>=-0.0000 S=-0.0000
 <L.S>= 0.000000000000E+00
 Annihilation of the first spin contaminant:
 S**2 before annihilation    -0.0000,   after     0.0000

 **********************************************************************

            Population analysis using the SCF density.

 **********************************************************************

 Orbital symmetries:
 Alpha Orbitals:
       Occupied  (A) (A) (A) (A) (A) (A) (A) (A) (A) (A) (A) (A)
                 (A) (A) (A) (A)
       Virtual   (A) (A) (A) (A) (A) (A) (A) (A) (A) (A) (A) (A)
                 (A) (A) (A) (A) (A) (A) (A) (A) (A) (A) (A) (A)
                 (A) (A) (A) (A) (A) (A) (A) (A) (A) (A) (A) (A)
                 (A) (A) (A) (A) (A) (A) (A) (A) (A) (A) (A) (A)
                 (A) (A) (A) (A) (A) (A) (A) (A) (A) (A) (A) (A)
                 (A) (A) (A) (A) (A) (A) (A) (A) (A) (A) (A) (A)
                 (A) (A) (A) (A) (A) (A) (A) (A) (A) (A) (A) (A)
 Beta  Orbitals:
       Occupied  (A) (A) (A) (A) (A) (A) (A) (A) (A) (A) (A) (A)
                 (A) (A) (A) (A)
       Virtual   (A) (A) (A) (A) (A) (A) (A) (A) (A) (A) (A) (A)
                 (A) (A) (A) (A) (A) (A) (A) (A) (A) (A) (A) (A)
                 (A) (A) (A) (A) (A) (A) (A) (A) (A) (A) (A) (A)
                 (A) (A) (A) (A) (A) (A) (A) (A) (A) (A) (A) (A)
                 (A) (A) (A) (A) (A) (A) (A) (A) (A) (A) (A) (A)
                 (A) (A) (A) (A) (A) (A) (A) (A) (A) (A) (A) (A)
                 (A) (A) (A) (A) (A) (A) (A) (A) (A) (A) (A) (A)
 The electronic state is 1-A.
 Alpha  occ. eigenvalues --  -14.30771 -14.30762  -6.75020  -6.75004  -0.84706
 Alpha  occ. eigenvalues --   -0.83748  -0.60604  -0.49606  -0.49030  -0.47353
 Alpha  occ. eigenvalues --   -0.43280  -0.38372  -0.34598  -0.33353  -0.26578
 Alpha  occ. eigenvalues --   -0.22552
 Alpha virt. eigenvalues --    0.03904   0.06245   0.11474   0.11823   0.14687
 Alpha virt. eigenvalues --    0.16109   0.17913   0.21102   0.23926   0.24915
 Alpha virt. eigenvalues --    0.28748   0.35448   0.40750   0.45090   0.47574
 Alpha virt. eigenvalues --    0.51096   0.52920   0.58119   0.66847   0.69864
 Alpha virt. eigenvalues --    0.73884   0.74891   0.77985   0.79721   0.82642
 Alpha virt. eigenvalues --    0.85441   0.86489   0.87677   0.90679   0.92596
 Alpha virt. eigenvalues --    0.94485   0.96205   1.10757   1.13583   1.19585
 Alpha virt. eigenvalues --    1.21458   1.29036   1.32565   1.42020   1.46512
 Alpha virt. eigenvalues --    1.47959   1.53819   1.56669   1.63549   1.68794
 Alpha virt. eigenvalues --    1.77220   1.82748   1.86422   2.02005   2.06094
 Alpha virt. eigenvalues --    2.08362   2.09006   2.15662   2.18204   2.23064
 Alpha virt. eigenvalues --    2.26567   2.34245   2.39067   2.42331   2.47949
 Alpha virt. eigenvalues --    2.52793   2.55178   2.58355   2.62355   2.62890
 Alpha virt. eigenvalues --    2.65059   2.65162   2.70382   2.79302   2.80022
 Alpha virt. eigenvalues --    2.95152   2.96047   3.02607   3.06807   3.21238
 Alpha virt. eigenvalues --    3.22256   3.30278   3.33569   3.53583   3.60395
 Alpha virt. eigenvalues --    3.62214   3.78910   4.22987   4.26112
  Beta  occ. eigenvalues --  -14.30771 -14.30762  -6.75020  -6.75004  -0.84706
  Beta  occ. eigenvalues --   -0.83748  -0.60604  -0.49606  -0.49030  -0.47353
  Beta  occ. eigenvalues --   -0.43280  -0.38372  -0.34598  -0.33353  -0.26578
  Beta  occ. eigenvalues --   -0.22552
  Beta virt. eigenvalues --    0.03904   0.06245   0.11474   0.11823   0.14687
  Beta virt. eigenvalues --    0.16109   0.17913   0.21102   0.23926   0.24915
  Beta virt. eigenvalues --    0.28748   0.35448   0.40750   0.45090   0.47574
  Beta virt. eigenvalues --    0.51096   0.52920   0.58119   0.66847   0.69864
  Beta virt. eigenvalues --    0.73884   0.74891   0.77985   0.79721   0.82642
  Beta virt. eigenvalues --    0.85441   0.86489   0.87677   0.90679   0.92596
  Beta virt. eigenvalues --    0.94485   0.96205   1.10757   1.13583   1.19585
  Beta virt. eigenvalues --    1.21458   1.29036   1.32565   1.42020   1.46512
  Beta virt. eigenvalues --    1.47959   1.53819   1.56669   1.63549   1.68794
  Beta virt. eigenvalues --    1.77220   1.82748   1.86422   2.02005   2.06094
  Beta virt. eigenvalues --    2.08362   2.09006   2.15662   2.18204   2.23064
  Beta virt. eigenvalues --    2.26567   2.34245   2.39067   2.42331   2.47949
  Beta virt. eigenvalues --    2.52793   2.55178   2.58355   2.62355   2.62890
  Beta virt. eigenvalues --    2.65059   2.65162   2.70382   2.79302   2.80022
  Beta virt. eigenvalues --    2.95152   2.96047   3.02607   3.06807   3.21238
  Beta virt. eigenvalues --    3.22256   3.30278   3.33569   3.53583   3.60395
  Beta virt. eigenvalues --    3.62214   3.78910   4.22987   4.26112
          Condensed to atoms (all electrons):
               1          2          3          4          5          6
     1  N    6.527871   0.460602  -0.005523  -0.010649  -0.000006  -0.024193
     2  B    0.460602   3.520858  -0.010651   0.123836   0.001226   0.402028
     3  N   -0.005523  -0.010651   6.527471   0.460724   0.364234   0.001307
     4  B   -0.010649   0.123836   0.460724   3.520972  -0.032413  -0.022348
     5  H   -0.000006   0.001226   0.364234  -0.032413   0.448234  -0.000029
     6  H   -0.024193   0.402028   0.001307  -0.022348  -0.000029   0.729923
     7  H   -0.019122   0.286077  -0.032818   0.103529  -0.000344  -0.014559
     8  H    0.354539  -0.037722   0.004215  -0.003861  -0.000049   0.003667
     9  H    0.364231  -0.032409  -0.000006   0.001227  -0.000000  -0.003080
    10  H    0.004232  -0.003860   0.354528  -0.037730  -0.030547   0.000040
    11  H   -0.032866   0.103669  -0.019106   0.285921   0.002314  -0.007524
    12  H    0.001307  -0.022311  -0.024204   0.402027  -0.003081   0.000259
               7          8          9         10         11         12
     1  N   -0.019122   0.354539   0.364231   0.004232  -0.032866   0.001307
     2  B    0.286077  -0.037722  -0.032409  -0.003860   0.103669  -0.022311
     3  N   -0.032818   0.004215  -0.000006   0.354528  -0.019106  -0.024204
     4  B    0.103529  -0.003861   0.001227  -0.037730   0.285921   0.402027
     5  H   -0.000344  -0.000049  -0.000000  -0.030547   0.002314  -0.003081
     6  H   -0.014559   0.003667  -0.003080   0.000040  -0.007524   0.000259
     7  H    0.784673  -0.004101   0.002312   0.000923  -0.085390  -0.007517
     8  H   -0.004101   0.471145  -0.030547   0.001586   0.000926   0.000040
     9  H    0.002312  -0.030547   0.448268  -0.000050  -0.000342  -0.000029
    10  H    0.000923   0.001586  -0.000050   0.471088  -0.004106   0.003669
    11  H   -0.085390   0.000926  -0.000342  -0.004106   0.784586  -0.014570
    12  H   -0.007517   0.000040  -0.000029   0.003669  -0.014570   0.729851
          Atomic-Atomic Spin Densities.
               1          2          3          4          5          6
     1  N   -0.000000   0.000000   0.000000   0.000000  -0.000000  -0.000000
     2  B    0.000000  -0.000000   0.000000   0.000000   0.000000  -0.000000
     3  N    0.000000   0.000000  -0.000000   0.000000   0.000000  -0.000000
     4  B    0.000000   0.000000   0.000000  -0.000000  -0.000000   0.000000
     5  H   -0.000000   0.000000   0.000000  -0.000000   0.000000   0.000000
     6  H   -0.000000  -0.000000  -0.000000   0.000000   0.000000   0.000000
     7  H   -0.000000   0.000000   0.000000  -0.000000   0.000000   0.000000
     8  H    0.000000  -0.000000  -0.000000   0.000000  -0.000000  -0.000000
     9  H   -0.000000  -0.000000   0.000000  -0.000000  -0.000000  -0.000000
    10  H    0.000000  -0.000000  -0.000000   0.000000   0.000000   0.000000
    11  H    0.000000  -0.000000  -0.000000   0.000000  -0.000000  -0.000000
    12  H    0.000000   0.000000  -0.000000  -0.000000  -0.000000  -0.000000
               7          8          9         10         11         12
     1  N   -0.000000   0.000000  -0.000000   0.000000   0.000000   0.000000
     2  B    0.000000  -0.000000  -0.000000  -0.000000  -0.000000   0.000000
     3  N    0.000000  -0.000000   0.000000  -0.000000  -0.000000  -0.000000
     4  B   -0.000000   0.000000  -0.000000   0.000000   0.000000  -0.000000
     5  H    0.000000  -0.000000  -0.000000   0.000000  -0.000000  -0.000000
     6  H    0.000000  -0.000000  -0.000000   0.000000  -0.000000  -0.000000
     7  H    0.000000  -0.000000  -0.000000  -0.000000   0.000000   0.000000
     8  H   -0.000000  -0.000000   0.000000  -0.000000   0.000000   0.000000
     9  H   -0.000000   0.000000  -0.000000   0.000000   0.000000   0.000000
    10  H   -0.000000  -0.000000   0.000000  -0.000000  -0.000000   0.000000
    11  H    0.000000   0.000000   0.000000  -0.000000  -0.000000   0.000000
    12  H    0.000000   0.000000   0.000000   0.000000   0.000000   0.000000
 Mulliken charges and spin densities:
               1          2
     1  N   -0.620423  -0.000000
     2  B    0.208658  -0.000000
     3  N   -0.620172  -0.000000
     4  B    0.208766  -0.000000
     5  H    0.250461   0.000000
     6  H   -0.065491  -0.000000
     7  H   -0.013663   0.000000
     8  H    0.240164  -0.000000
     9  H    0.250427  -0.000000
    10  H    0.240225  -0.000000
    11  H   -0.013511  -0.000000
    12  H   -0.065440   0.000000
 Sum of Mulliken charges =  -0.00000  -0.00000
 Mulliken charges and spin densities with hydrogens summed into heavy atoms:
               1          2
     1  N   -0.129832  -0.000000
     2  B    0.129504  -0.000000
     3  N   -0.129485  -0.000000
     4  B    0.129814  -0.000000
 Electronic spatial extent (au):  <R**2>=            382.8186
 Charge=             -0.0000 electrons
 Dipole moment (field-independent basis, Debye):
    X=             -0.0024    Y=             -2.4960    Z=              0.0010  Tot=              2.4960
 Quadrupole moment (field-independent basis, Debye-Ang):
   XX=            -23.9881   YY=            -25.8396   ZZ=            -28.2227
   XY=              0.0003   XZ=             -2.6187   YZ=             -0.0033
 Traceless Quadrupole moment (field-independent basis, Debye-Ang):
   XX=              2.0287   YY=              0.1772   ZZ=             -2.2059
   XY=              0.0003   XZ=             -2.6187   YZ=             -0.0033
 Octapole moment (field-independent basis, Debye-Ang**2):
  XXX=             -0.0057  YYY=            -21.2835  ZZZ=             -0.0006  XYY=             -0.0039
  XXY=            -13.0497  XXZ=              0.0018  XZZ=              0.0009  YZZ=             -3.2225
  YYZ=              0.0032  XYZ=              0.5619
 Hexadecapole moment (field-independent basis, Debye-Ang**3):
 XXXX=           -280.0690 YYYY=           -134.8131 ZZZZ=            -41.8476 XXXY=              0.0041
 XXXZ=            -25.7521 YYYX=             -0.0003 YYYZ=             -0.0071 ZZZX=             -2.2883
 ZZZY=             -0.0045 XXYY=            -76.1368 XXZZ=            -66.4369 YYZZ=            -30.1368
 XXYZ=             -0.0071 YYXZ=              1.3101 ZZXY=             -0.0021
 N-N= 1.117305668040D+02 E-N=-6.037918116769D+02  KE= 1.624414943314D+02
                          Isotropic Fermi Contact Couplings
        Atom                 a.u.       MegaHertz       Gauss      10(-4) cm-1
     1  N(14)             -0.00000      -0.00000      -0.00000      -0.00000
     2  B(11)              0.00000       0.00000       0.00000       0.00000
     3  N(14)             -0.00000      -0.00000      -0.00000      -0.00000
     4  B(11)             -0.00000      -0.00000      -0.00000      -0.00000
     5  H(1)              -0.00000      -0.00000      -0.00000      -0.00000
     6  H(1)              -0.00000      -0.00000      -0.00000      -0.00000
     7  H(1)              -0.00000      -0.00000      -0.00000      -0.00000
     8  H(1)              -0.00000      -0.00000      -0.00000      -0.00000
     9  H(1)              -0.00000      -0.00000      -0.00000      -0.00000
    10  H(1)              -0.00000      -0.00000      -0.00000      -0.00000
    11  H(1)              -0.00000      -0.00000      -0.00000      -0.00000
    12  H(1)              -0.00000      -0.00000      -0.00000      -0.00000
 --------------------------------------------------------
       Center         ----  Spin Dipole Couplings  ----
                      3XX-RR        3YY-RR        3ZZ-RR
 --------------------------------------------------------
     1   Atom        0.000000      0.000000      0.000000
     2   Atom        0.000000      0.000000      0.000000
     3   Atom        0.000000      0.000000      0.000000
     4   Atom        0.000000      0.000000      0.000000
     5   Atom        0.000000      0.000000      0.000000
     6   Atom        0.000000      0.000000      0.000000
     7   Atom        0.000000      0.000000      0.000000
     8   Atom        0.000000      0.000000      0.000000
     9   Atom        0.000000      0.000000      0.000000
    10   Atom        0.000000      0.000000      0.000000
    11   Atom        0.000000      0.000000      0.000000
    12   Atom        0.000000      0.000000      0.000000
 --------------------------------------------------------
                        XY            XZ            YZ
 --------------------------------------------------------
     1   Atom        0.000000      0.000000      0.000000
     2   Atom        0.000000      0.000000      0.000000
     3   Atom        0.000000      0.000000      0.000000
     4   Atom        0.000000      0.000000      0.000000
     5   Atom        0.000000      0.000000      0.000000
     6   Atom        0.000000      0.000000      0.000000
     7   Atom        0.000000      0.000000      0.000000
     8   Atom        0.000000      0.000000      0.000000
     9   Atom        0.000000      0.000000      0.000000
    10   Atom        0.000000      0.000000      0.000000
    11   Atom        0.000000      0.000000      0.000000
    12   Atom        0.000000      0.000000      0.000000
 --------------------------------------------------------


 ---------------------------------------------------------------------------------
              Anisotropic Spin Dipole Couplings in Principal Axis System
 ---------------------------------------------------------------------------------

       Atom             a.u.   MegaHertz   Gauss  10(-4) cm-1        Axes

              Baa     0.0000     0.000     0.000     0.000  1.0000  0.0000  0.0000
     1 N(14)  Bbb     0.0000     0.000     0.000     0.000 -0.0000  1.0000  0.0000
              Bcc     0.0000     0.000     0.000     0.000  0.0000  0.0000  1.0000
 
              Baa     0.0000     0.000     0.000     0.000  1.0000  0.0000  0.0000
     2 B(11)  Bbb     0.0000     0.000     0.000     0.000 -0.0000  1.0000  0.0000
              Bcc     0.0000     0.000     0.000     0.000  0.0000  0.0000  1.0000
 
              Baa     0.0000     0.000     0.000     0.000  1.0000  0.0000  0.0000
     3 N(14)  Bbb     0.0000     0.000     0.000     0.000 -0.0000  1.0000  0.0000
              Bcc     0.0000     0.000     0.000     0.000  0.0000  0.0000  1.0000
 
              Baa     0.0000     0.000     0.000     0.000  1.0000  0.0000  0.0000
     4 B(11)  Bbb     0.0000     0.000     0.000     0.000 -0.0000  1.0000  0.0000
              Bcc     0.0000     0.000     0.000     0.000  0.0000  0.0000  1.0000
 
              Baa     0.0000     0.000     0.000     0.000  1.0000  0.0000  0.0000
     5 H(1)   Bbb     0.0000     0.000     0.000     0.000 -0.0000  1.0000  0.0000
              Bcc     0.0000     0.000     0.000     0.000  0.0000  0.0000  1.0000
 
              Baa     0.0000     0.000     0.000     0.000  1.0000  0.0000  0.0000
     6 H(1)   Bbb     0.0000     0.000     0.000     0.000 -0.0000  1.0000  0.0000
              Bcc     0.0000     0.000     0.000     0.000  0.0000  0.0000  1.0000
 
              Baa     0.0000     0.000     0.000     0.000  1.0000  0.0000  0.0000
     7 H(1)   Bbb     0.0000     0.000     0.000     0.000 -0.0000  1.0000  0.0000
              Bcc     0.0000     0.000     0.000     0.000  0.0000  0.0000  1.0000
 
              Baa     0.0000     0.000     0.000     0.000  1.0000  0.0000  0.0000
     8 H(1)   Bbb     0.0000     0.000     0.000     0.000 -0.0000  1.0000  0.0000
              Bcc     0.0000     0.000     0.000     0.000  0.0000  0.0000  1.0000
 
              Baa     0.0000     0.000     0.000     0.000  1.0000  0.0000  0.0000
     9 H(1)   Bbb     0.0000     0.000     0.000     0.000 -0.0000  1.0000  0.0000
              Bcc     0.0000     0.000     0.000     0.000  0.0000  0.0000  1.0000
 
              Baa     0.0000     0.000     0.000     0.000  1.0000  0.0000  0.0000
    10 H(1)   Bbb     0.0000     0.000     0.000     0.000 -0.0000  1.0000  0.0000
              Bcc     0.0000     0.000     0.000     0.000  0.0000  0.0000  1.0000
 
              Baa     0.0000     0.000     0.000     0.000  1.0000  0.0000  0.0000
    11 H(1)   Bbb     0.0000     0.000     0.000     0.000 -0.0000  1.0000  0.0000
              Bcc     0.0000     0.000     0.000     0.000  0.0000  0.0000  1.0000
 
              Baa     0.0000     0.000     0.000     0.000  1.0000  0.0000  0.0000
    12 H(1)   Bbb     0.0000     0.000     0.000     0.000 -0.0000  1.0000  0.0000
              Bcc     0.0000     0.000     0.000     0.000  0.0000  0.0000  1.0000
 

 ---------------------------------------------------------------------------------

 Calling FoFJK, ICntrl=      2127 FMM=F ISym2X=0 I1Cent= 0 IOpClX= 1 NMat=1 NMatS=1 NMatT=0.
 ***** Axes restored to original set *****
 -------------------------------------------------------------------
 Center     Atomic                   Forces (Hartrees/Bohr)
 Number     Number              X              Y              Z
 -------------------------------------------------------------------
      1        7          -0.000750801   -0.001253066    0.000165307
      2        5          -0.002556463    0.000858457    0.002022075
      3        7           0.000761697   -0.001376695   -0.000155207
      4        5           0.002459948    0.000971880   -0.002051169
      5        1          -0.002433940    0.000527581    0.001665939
      6        1           0.001119421   -0.001469810   -0.000669145
      7        1          -0.000304010    0.000166102   -0.000870385
      8        1          -0.000782033    0.001166799    0.001012237
      9        1           0.002483158    0.000522321   -0.001689745
     10        1           0.000778312    0.001177131   -0.001008541
     11        1           0.000353301    0.000181937    0.000909133
     12        1          -0.001128590   -0.001472637    0.000669500
 -------------------------------------------------------------------
 Cartesian Forces:  Max     0.002556463 RMS     0.001302957

 GradGradGradGradGradGradGradGradGradGradGradGradGradGradGradGradGradGrad
 Berny optimization.
 FormGI is forming the generalized inverse of G from B-inverse, IUseBI=4.
 Internal  Forces:  Max     0.003004618 RMS     0.000865838
 Search for a local minimum.
 Step number   1 out of a maximum of   60
 All quantities printed in internal units (Hartrees-Bohrs-Radians)
 Mixed Optimization -- En-DIIS/RFO-DIIS
 Second derivative matrix not updated -- first step.
 ITU=  0
     Eigenvalues ---    0.00230   0.01842   0.01846   0.01864   0.01869
     Eigenvalues ---    0.01938   0.01938   0.05044   0.05049   0.07966
     Eigenvalues ---    0.07968   0.11493   0.15561   0.15562   0.16000
     Eigenvalues ---    0.16000   0.16000   0.16000   0.20551   0.20553
     Eigenvalues ---    0.20620   0.20624   0.24854   0.24855   0.41188
     Eigenvalues ---    0.41229   0.46100   0.46103   0.46127   0.46136
 RFO step:  Lambda=-1.78124767D-04 EMin= 2.30000000D-03
 Linear search not attempted -- first point.
 Iteration  1 RMS(Cart)=  0.01149554 RMS(Int)=  0.00008875
 Iteration  2 RMS(Cart)=  0.00009156 RMS(Int)=  0.00000922
 Iteration  3 RMS(Cart)=  0.00000001 RMS(Int)=  0.00000922
 Variable       Old X    -DE/DX   Delta X   Delta X   Delta X     New X
                                 (Linear)    (Quad)   (Total)
    R1        2.69970  -0.00085   0.00000  -0.00206  -0.00206   2.69764
    R2        1.90716  -0.00164   0.00000  -0.00356  -0.00356   1.90360
    R3        1.90688  -0.00300   0.00000  -0.00651  -0.00651   1.90037
    R4        3.55600   0.00079   0.00000   0.00687   0.00687   3.56288
    R5        2.26281  -0.00193   0.00000  -0.00775  -0.00775   2.25506
    R6        2.38541   0.00046   0.00000   0.00221   0.00221   2.38762
    R7        2.69917  -0.00073   0.00000  -0.00177  -0.00177   2.69740
    R8        1.90679  -0.00295   0.00000  -0.00639  -0.00639   1.90039
    R9        1.90719  -0.00165   0.00000  -0.00357  -0.00357   1.90362
   R10        2.38555   0.00045   0.00000   0.00220   0.00220   2.38774
   R11        2.26279  -0.00193   0.00000  -0.00778  -0.00778   2.25501
    A1        2.15763   0.00050   0.00000   0.00320   0.00320   2.16083
    A2        2.13247  -0.00035   0.00000  -0.00210  -0.00210   2.13037
    A3        1.98863  -0.00015   0.00000  -0.00087  -0.00087   1.98775
    A4        2.08051  -0.00052   0.00000  -0.00122  -0.00123   2.07928
    A5        2.09767   0.00043   0.00000   0.00184   0.00181   2.09948
    A6        2.02142  -0.00048   0.00000  -0.00500  -0.00501   2.01641
    A7        2.06425   0.00013   0.00000   0.00225   0.00224   2.06650
    A8        0.89465   0.00057   0.00000   0.00429   0.00429   0.89894
    A9        1.95150  -0.00022   0.00000  -0.00504  -0.00506   1.94643
   A10        2.13254  -0.00035   0.00000  -0.00213  -0.00213   2.13041
   A11        2.15756   0.00050   0.00000   0.00316   0.00316   2.16072
   A12        1.98849  -0.00014   0.00000  -0.00079  -0.00079   1.98769
   A13        2.08054  -0.00054   0.00000  -0.00132  -0.00133   2.07922
   A14        0.89387   0.00064   0.00000   0.00512   0.00512   0.89899
   A15        2.06422   0.00013   0.00000   0.00219   0.00218   2.06641
   A16        2.02131  -0.00050   0.00000  -0.00497  -0.00498   2.01633
   A17        2.09781   0.00044   0.00000   0.00180   0.00177   2.09958
   A18        1.95172  -0.00024   0.00000  -0.00514  -0.00517   1.94655
    D1       -0.48073   0.00014   0.00000   0.01476   0.01477  -0.46596
    D2        2.96877   0.00001   0.00000   0.00381   0.00381   2.97258
    D3        0.53621   0.00052   0.00000   0.01770   0.01770   0.55390
    D4        2.55330   0.00019   0.00000   0.01745   0.01745   2.57075
    D5       -0.28039   0.00006   0.00000   0.00649   0.00650  -0.27390
    D6       -2.71295   0.00057   0.00000   0.02039   0.02038  -2.69258
    D7        0.08473  -0.00010   0.00000   0.00740   0.00740   0.09213
    D8       -1.67797  -0.00007   0.00000   0.01105   0.01105  -1.66692
    D9        2.92483   0.00007   0.00000   0.01736   0.01736   2.94219
   D10        2.92431   0.00008   0.00000   0.01809   0.01809   2.94239
   D11        1.16161   0.00012   0.00000   0.02173   0.02173   1.18334
   D12       -0.51878   0.00025   0.00000   0.02805   0.02805  -0.49073
   D13       -1.67846  -0.00006   0.00000   0.01149   0.01149  -1.66697
   D14        2.84202  -0.00002   0.00000   0.01514   0.01514   2.85716
   D15        1.16164   0.00011   0.00000   0.02145   0.02145   1.18309
   D16        2.55327   0.00016   0.00000   0.01689   0.01689   2.57016
   D17       -2.71392   0.00061   0.00000   0.02079   0.02078  -2.69314
   D18       -0.28092   0.00006   0.00000   0.00668   0.00668  -0.27424
   D19       -0.47908   0.00011   0.00000   0.01414   0.01415  -0.46494
   D20        0.53690   0.00056   0.00000   0.01804   0.01804   0.55494
   D21        2.96991   0.00000   0.00000   0.00393   0.00394   2.97384
         Item               Value     Threshold  Converged?
 Maximum Force            0.003005     0.000450     NO 
 RMS     Force            0.000866     0.000300     NO 
 Maximum Displacement     0.040196     0.001800     NO 
 RMS     Displacement     0.011488     0.001200     NO 
 Predicted change in Energy=-8.954731D-05
 GradGradGradGradGradGradGradGradGradGradGradGradGradGradGradGradGradGrad

                          Input orientation:                          
 ---------------------------------------------------------------------
 Center     Atomic      Atomic             Coordinates (Angstroms)
 Number     Number       Type             X           Y           Z
 ---------------------------------------------------------------------
      1          7           0       -1.638381   -0.555336   -0.032053
      2          5           0       -0.941228    0.690231   -0.051413
      3          7           0        1.638251   -0.555426    0.032096
      4          5           0        0.941354    0.690141    0.051521
      5          1           0        2.548413   -0.651477   -0.384677
      6          1           0       -1.521852    1.708531    0.172121
      7          1           0       -0.102513    0.830398   -0.985906
      8          1           0       -1.240315   -1.425385   -0.347159
      9          1           0       -2.548761   -0.651114    0.384280
     10          1           0        1.239654   -1.425539    0.346397
     11          1           0        0.102656    0.830310    0.986117
     12          1           0        1.521981    1.708374   -0.172184
 ---------------------------------------------------------------------
                    Distance matrix (angstroms):
                    1          2          3          4          5
     1  N    0.000000
     2  B    1.427528   0.000000
     3  N    3.277260   2.865719   0.000000
     4  B    2.865874   1.885394   1.427403   0.000000
     5  H    4.202718   3.753510   1.005644   2.138421   0.000000
     6  H    2.276040   1.193325   3.889905   2.668154   4.737796
     7  H    2.277935   1.263474   2.446854   1.478373   3.095939
     8  H    1.007341   2.157024   3.030974   3.064976   3.867144
     9  H    1.005633   2.138504   4.202887   3.753744   5.154850
    10  H    3.030440   3.064471   1.007353   2.156858   1.687154
    11  H    2.447017   1.478440   2.277823   1.263540   3.171198
    12  H    3.889976   2.668070   2.275970   1.193302   2.582172
                    6          7          8          9         10
     6  H    0.000000
     7  H    2.031420   0.000000
     8  H    3.189098   2.605983   0.000000
     9  H    2.582146   3.171185   1.687166   0.000000
    10  H    4.180751   2.943755   2.575125   3.866944   0.000000
    11  H    2.018139   1.982667   2.944377   3.096261   2.605928
    12  H    3.063244   2.017911   4.181070   4.737908   3.189051
                   11         12
    11  H    0.000000
    12  H    2.031537   0.000000
 Stoichiometry    B2H8N2
 Framework group  C1[X(B2H8N2)]
 Deg. of freedom    30
 Full point group                 C1      NOp   1
 Largest Abelian subgroup         C1      NOp   1
 Largest concise Abelian subgroup C1      NOp   1
                         Standard orientation:                         
 ---------------------------------------------------------------------
 Center     Atomic      Atomic             Coordinates (Angstroms)
 Number     Number       Type             X           Y           Z
 ---------------------------------------------------------------------
      1          7           0        1.638237   -0.556934    0.037107
      2          5           0        0.941037    0.688637    0.054401
      3          7           0       -1.638179   -0.556992   -0.037256
      4          5           0       -0.941215    0.688571   -0.054402
      5          1           0       -2.549637   -0.653070    0.376668
      6          1           0        1.522363    1.706950   -0.167234
      7          1           0        0.099414    0.828731    0.986286
      8          1           0        1.239183   -1.427008    0.350896
      9          1           0        2.549909   -0.652685   -0.376393
     10          1           0       -1.238612   -1.427080   -0.350388
     11          1           0       -0.099606    0.828814   -0.986367
     12          1           0       -1.522528    1.706790    0.167579
 ---------------------------------------------------------------------
 Rotational constants (GHZ):          14.8722705           4.2753339           3.4398883
 Standard basis: 6-31G(d,p) (6D, 7F)
 There are   100 symmetry adapted cartesian basis functions of A   symmetry.
 There are   100 symmetry adapted basis functions of A   symmetry.
   100 basis functions,   168 primitive gaussians,   100 cartesian basis functions
    16 alpha electrons       16 beta electrons
       nuclear repulsion energy       111.7759090003 Hartrees.
 NAtoms=   12 NActive=   12 NUniq=   12 SFac= 1.00D+00 NAtFMM=   60 NAOKFM=F Big=F
 Integral buffers will be    131072 words long.
 Raffenetti 2 integral format.
 Two-electron integral symmetry is turned on.
 One-electron integrals computed using PRISM.
 NBasis=   100 RedAO= T EigKep=  4.62D-03  NBF=   100
 NBsUse=   100 1.00D-06 EigRej= -1.00D+00 NBFU=   100
 Initial guess from the checkpoint file:  "/scratch/1311849/Gau-12470.chk"
 B after Tr=    -0.000000   -0.000000    0.000000
         Rot=    1.000000   -0.000024   -0.000078    0.000005 Ang=  -0.01 deg.
 Initial guess <Sx>= 0.0000 <Sy>= 0.0000 <Sz>= 0.0000 <S**2>= 0.0000 S= 0.0000
 ExpMin= 1.27D-01 ExpMax= 4.17D+03 ExpMxC= 6.27D+02 IAcc=2 IRadAn=         4 AccDes= 0.00D+00
 Harris functional with IExCor=  402 and IRadAn=       4 diagonalized for initial guess.
 HarFok:  IExCor=  402 AccDes= 0.00D+00 IRadAn=         4 IDoV= 1 UseB2=F ITyADJ=14
 ICtDFT=  3500011 ScaDFX=  1.000000  1.000000  1.000000  1.000000
 FoFCou: FMM=F IPFlag=           0 FMFlag=      100000 FMFlg1=           0
         NFxFlg=           0 DoJE=T BraDBF=F KetDBF=T FulRan=T
         wScrn=  0.000000 ICntrl=       500 IOpCl=  0 I1Cent=   200000004 NGrid=           0
         NMat0=    1 NMatS0=      1 NMatT0=    0 NMatD0=    1 NMtDS0=    0 NMtDT0=    0
 Petite list used in FoFCou.
 Keep R1 and R2 ints in memory in canonical form, NReq=29209870.
 Requested convergence on RMS density matrix=1.00D-08 within1024 cycles.
 Requested convergence on MAX density matrix=1.00D-06.
 Requested convergence on             energy=1.00D-06.
 No special actions if energy rises.
 Integral accuracy reduced to 1.0D-05 until final iterations.
 Initial convergence to 1.0D-05 achieved.  Increase integral accuracy.
 SCF Done:  E(UB3LYP) =  -164.078549554     A.U. after    9 cycles
            NFock=  9  Conv=0.72D-08     -V/T= 2.0099
 <Sx>= 0.0000 <Sy>= 0.0000 <Sz>= 0.0000 <S**2>=-0.0000 S=-0.0000
 <L.S>= 0.000000000000E+00
 Annihilation of the first spin contaminant:
 S**2 before annihilation    -0.0000,   after     0.0000
 Calling FoFJK, ICntrl=      2127 FMM=F ISym2X=0 I1Cent= 0 IOpClX= 1 NMat=1 NMatS=1 NMatT=0.
 ***** Axes restored to original set *****
 -------------------------------------------------------------------
 Center     Atomic                   Forces (Hartrees/Bohr)
 Number     Number              X              Y              Z
 -------------------------------------------------------------------
      1        7           0.000480992   -0.000131391   -0.000265380
      2        5          -0.000365903   -0.000386862    0.000970917
      3        7          -0.000429353   -0.000213760    0.000262521
      4        5           0.000309644   -0.000333232   -0.000967278
      5        1           0.000301493    0.000126380    0.000197277
      6        1           0.000405911   -0.000050693    0.000367631
      7        1           0.000855269    0.000554758    0.000526403
      8        1          -0.000086137   -0.000105536    0.000222298
      9        1          -0.000308529    0.000123489   -0.000195662
     10        1           0.000092198   -0.000099407   -0.000218039
     11        1          -0.000861807    0.000558484   -0.000546571
     12        1          -0.000393777   -0.000042230   -0.000354118
 -------------------------------------------------------------------
 Cartesian Forces:  Max     0.000970917 RMS     0.000430426

 GradGradGradGradGradGradGradGradGradGradGradGradGradGradGradGradGradGrad
 Berny optimization.
 Using GEDIIS/GDIIS optimizer.
 FormGI is forming the generalized inverse of G from B-inverse, IUseBI=4.
 Internal  Forces:  Max     0.001138185 RMS     0.000425790
 Search for a local minimum.
 Step number   2 out of a maximum of   60
 All quantities printed in internal units (Hartrees-Bohrs-Radians)
 Mixed Optimization -- En-DIIS/RFO-DIIS
 Swapping is turned off.
 Update second derivatives using D2CorX and points    1    2
 DE= -6.93D-05 DEPred=-8.95D-05 R= 7.74D-01
 TightC=F SS=  1.41D+00  RLast= 7.74D-02 DXNew= 5.0454D-01 2.3212D-01
 Trust test= 7.74D-01 RLast= 7.74D-02 DXMaxT set to 3.00D-01
 ITU=  1  0
     Eigenvalues ---    0.00301   0.01240   0.01844   0.01864   0.01868
     Eigenvalues ---    0.01917   0.01938   0.05066   0.05066   0.08009
     Eigenvalues ---    0.09694   0.12948   0.15098   0.15587   0.15795
     Eigenvalues ---    0.16000   0.16000   0.16000   0.20308   0.20563
     Eigenvalues ---    0.20622   0.21847   0.24854   0.25491   0.41183
     Eigenvalues ---    0.41346   0.45789   0.46101   0.46132   0.46593
 En-DIIS/RFO-DIIS/Sim-DIIS IScMMF=       -3 using points:     2    1
 RFO step:  Lambda=-1.79034269D-04.
 DidBck=T Rises=F RFO-DIIS coefs:    0.35422    0.64578
 Iteration  1 RMS(Cart)=  0.02727069 RMS(Int)=  0.00033721
 Iteration  2 RMS(Cart)=  0.00076403 RMS(Int)=  0.00001331
 Iteration  3 RMS(Cart)=  0.00000035 RMS(Int)=  0.00001331
 Variable       Old X    -DE/DX   Delta X   Delta X   Delta X     New X
                                 (Linear)    (Quad)   (Total)
    R1        2.69764   0.00005   0.00133  -0.00324  -0.00191   2.69573
    R2        1.90360  -0.00001   0.00230  -0.00579  -0.00350   1.90010
    R3        1.90037   0.00019   0.00420  -0.01023  -0.00602   1.89435
    R4        3.56288  -0.00107  -0.00444   0.00353  -0.00091   3.56197
    R5        2.25506  -0.00017   0.00501  -0.01313  -0.00813   2.24693
    R6        2.38762   0.00024  -0.00143   0.00454   0.00311   2.39073
    R7        2.69740   0.00014   0.00114  -0.00258  -0.00144   2.69596
    R8        1.90039   0.00018   0.00413  -0.01005  -0.00592   1.89447
    R9        1.90362  -0.00002   0.00231  -0.00583  -0.00352   1.90010
   R10        2.38774   0.00023  -0.00142   0.00447   0.00305   2.39080
   R11        2.25501  -0.00016   0.00502  -0.01314  -0.00812   2.24690
    A1        2.16083   0.00027  -0.00206   0.00662   0.00455   2.16538
    A2        2.13037  -0.00020   0.00135  -0.00432  -0.00297   2.12740
    A3        1.98775  -0.00006   0.00056  -0.00167  -0.00111   1.98665
    A4        2.07928   0.00047   0.00080  -0.00095  -0.00019   2.07909
    A5        2.09948   0.00010  -0.00117   0.00500   0.00382   2.10330
    A6        2.01641   0.00059   0.00324  -0.00525  -0.00200   2.01441
    A7        2.06650  -0.00050  -0.00145   0.00191   0.00043   2.06692
    A8        0.89894  -0.00112  -0.00277  -0.00391  -0.00668   0.89226
    A9        1.94643  -0.00009   0.00327  -0.00879  -0.00549   1.94094
   A10        2.13041  -0.00020   0.00138  -0.00439  -0.00302   2.12738
   A11        2.16072   0.00027  -0.00204   0.00658   0.00454   2.16526
   A12        1.98769  -0.00006   0.00051  -0.00153  -0.00102   1.98667
   A13        2.07922   0.00049   0.00086  -0.00102  -0.00019   2.07902
   A14        0.89899  -0.00114  -0.00331  -0.00279  -0.00610   0.89289
   A15        2.06641  -0.00050  -0.00141   0.00191   0.00046   2.06687
   A16        2.01633   0.00060   0.00322  -0.00521  -0.00198   2.01434
   A17        2.09958   0.00009  -0.00114   0.00489   0.00374   2.10331
   A18        1.94655  -0.00009   0.00334  -0.00906  -0.00569   1.94086
    D1       -0.46596   0.00049  -0.00954   0.03382   0.02429  -0.44167
    D2        2.97258   0.00031  -0.00246   0.01075   0.00827   2.98085
    D3        0.55390  -0.00050  -0.01143   0.02716   0.01574   0.56965
    D4        2.57075   0.00057  -0.01127   0.04152   0.03026   2.60101
    D5       -0.27390   0.00039  -0.00420   0.01845   0.01424  -0.25966
    D6       -2.69258  -0.00042  -0.01316   0.03487   0.02171  -2.67086
    D7        0.09213  -0.00040  -0.00478  -0.06475  -0.06952   0.02262
    D8       -1.66692  -0.00039  -0.00713  -0.05730  -0.06444  -1.73136
    D9        2.94219  -0.00012  -0.01121  -0.04229  -0.05350   2.88869
   D10        2.94239  -0.00013  -0.01168  -0.04157  -0.05325   2.88915
   D11        1.18334  -0.00012  -0.01403  -0.03413  -0.04817   1.13517
   D12       -0.49073   0.00015  -0.01811  -0.01911  -0.03723  -0.52796
   D13       -1.66697  -0.00040  -0.00742  -0.05674  -0.06416  -1.73113
   D14        2.85716  -0.00039  -0.00978  -0.04930  -0.05909   2.79807
   D15        1.18309  -0.00011  -0.01385  -0.03429  -0.04815   1.13494
   D16        2.57016   0.00058  -0.01091   0.04083   0.02993   2.60009
   D17       -2.69314  -0.00043  -0.01342   0.03547   0.02206  -2.67108
   D18       -0.27424   0.00039  -0.00431   0.01847   0.01414  -0.26010
   D19       -0.46494   0.00050  -0.00914   0.03289   0.02376  -0.44117
   D20        0.55494  -0.00051  -0.01165   0.02754   0.01590   0.57084
   D21        2.97384   0.00030  -0.00254   0.01054   0.00798   2.98182
         Item               Value     Threshold  Converged?
 Maximum Force            0.001138     0.000450     NO 
 RMS     Force            0.000426     0.000300     NO 
 Maximum Displacement     0.090174     0.001800     NO 
 RMS     Displacement     0.027209     0.001200     NO 
 Predicted change in Energy=-9.254950D-05
 GradGradGradGradGradGradGradGradGradGradGradGradGradGradGradGradGradGrad

                          Input orientation:                          
 ---------------------------------------------------------------------
 Center     Atomic      Atomic             Coordinates (Angstroms)
 Number     Number       Type             X           Y           Z
 ---------------------------------------------------------------------
      1          7           0       -1.636279   -0.558951   -0.043315
      2          5           0       -0.941917    0.687126   -0.032968
      3          7           0        1.636128   -0.559171    0.043238
      4          5           0        0.941837    0.687088    0.033091
      5          1           0        2.545948   -0.661910   -0.365053
      6          1           0       -1.517109    1.696623    0.219720
      7          1           0       -0.114332    0.855408   -0.974938
      8          1           0       -1.240717   -1.421415   -0.376030
      9          1           0       -2.546379   -0.661476    0.364244
     10          1           0        1.240226   -1.421668    0.375461
     11          1           0        0.114840    0.855562    0.975592
     12          1           0        1.517014    1.696495   -0.219902
 ---------------------------------------------------------------------
                    Distance matrix (angstroms):
                    1          2          3          4          5
     1  N    0.000000
     2  B    1.426518   0.000000
     3  N    3.273552   2.864503   0.000000
     4  B    2.864461   1.884912   1.426641   0.000000
     5  H    4.195848   3.754381   1.002511   2.133421   0.000000
     6  H    2.273984   1.189025   3.881064   2.664659   4.734244
     7  H    2.276984   1.265118   2.470188   1.469676   3.122708
     8  H    1.005491   2.157062   3.032406   3.062141   3.862098
     9  H    1.002446   2.133261   4.196055   3.754456   5.144285
    10  H    3.032150   3.061955   1.005490   2.157106   1.682410
    11  H    2.470919   1.470476   2.277075   1.265155   3.163912
    12  H    3.880912   2.664603   2.274085   1.189006   2.577178
                    6          7          8          9         10
     6  H    0.000000
     7  H    2.025495   0.000000
     8  H    3.186451   2.609858   0.000000
     9  H    2.576996   3.163731   1.682340   0.000000
    10  H    4.165439   2.973799   2.592261   3.862175   0.000000
    11  H    1.985443   1.963947   2.974734   3.123657   2.610062
    12  H    3.065807   1.984640   4.165432   4.734175   3.186535
                   11         12
    11  H    0.000000
    12  H    2.025455   0.000000
 Stoichiometry    B2H8N2
 Framework group  C1[X(B2H8N2)]
 Deg. of freedom    30
 Full point group                 C1      NOp   1
 Largest Abelian subgroup         C1      NOp   1
 Largest concise Abelian subgroup C1      NOp   1
                         Standard orientation:                         
 ---------------------------------------------------------------------
 Center     Atomic      Atomic             Coordinates (Angstroms)
 Number     Number       Type             X           Y           Z
 ---------------------------------------------------------------------
      1          7           0        1.636140   -0.558487    0.044883
      2          5           0        0.941862    0.687633    0.033994
      3          7           0       -1.636178   -0.558500   -0.045007
      4          5           0       -0.941823    0.687716   -0.033986
      5          1           0       -2.546419   -0.661239    0.362343
      6          1           0        1.517372    1.697129   -0.217972
      7          1           0        0.113327    0.855839    0.975142
      8          1           0        1.240187   -1.420971    0.377080
      9          1           0        2.546648   -0.661011   -0.361762
     10          1           0       -1.239988   -1.420976   -0.376941
     11          1           0       -0.113856    0.856266   -0.975621
     12          1           0       -1.517198    1.697124    0.218555
 ---------------------------------------------------------------------
 Rotational constants (GHZ):          14.8609924           4.2832917           3.4440960
 Standard basis: 6-31G(d,p) (6D, 7F)
 There are   100 symmetry adapted cartesian basis functions of A   symmetry.
 There are   100 symmetry adapted basis functions of A   symmetry.
   100 basis functions,   168 primitive gaussians,   100 cartesian basis functions
    16 alpha electrons       16 beta electrons
       nuclear repulsion energy       111.8764704518 Hartrees.
 NAtoms=   12 NActive=   12 NUniq=   12 SFac= 1.00D+00 NAtFMM=   60 NAOKFM=F Big=F
 Integral buffers will be    131072 words long.
 Raffenetti 2 integral format.
 Two-electron integral symmetry is turned on.
 One-electron integrals computed using PRISM.
 NBasis=   100 RedAO= T EigKep=  4.49D-03  NBF=   100
 NBsUse=   100 1.00D-06 EigRej= -1.00D+00 NBFU=   100
 Initial guess from the checkpoint file:  "/scratch/1311849/Gau-12470.chk"
 B after Tr=     0.000000    0.000000    0.000000
         Rot=    1.000000   -0.000014   -0.000460    0.000022 Ang=  -0.05 deg.
 Initial guess <Sx>= 0.0000 <Sy>= 0.0000 <Sz>= 0.0000 <S**2>= 0.0000 S= 0.0000
 ExpMin= 1.27D-01 ExpMax= 4.17D+03 ExpMxC= 6.27D+02 IAcc=2 IRadAn=         4 AccDes= 0.00D+00
 Harris functional with IExCor=  402 and IRadAn=       4 diagonalized for initial guess.
 HarFok:  IExCor=  402 AccDes= 0.00D+00 IRadAn=         4 IDoV= 1 UseB2=F ITyADJ=14
 ICtDFT=  3500011 ScaDFX=  1.000000  1.000000  1.000000  1.000000
 FoFCou: FMM=F IPFlag=           0 FMFlag=      100000 FMFlg1=           0
         NFxFlg=           0 DoJE=T BraDBF=F KetDBF=T FulRan=T
         wScrn=  0.000000 ICntrl=       500 IOpCl=  0 I1Cent=   200000004 NGrid=           0
         NMat0=    1 NMatS0=      1 NMatT0=    0 NMatD0=    1 NMtDS0=    0 NMtDT0=    0
 Petite list used in FoFCou.
 Keep R1 and R2 ints in memory in canonical form, NReq=29209870.
 Requested convergence on RMS density matrix=1.00D-08 within1024 cycles.
 Requested convergence on MAX density matrix=1.00D-06.
 Requested convergence on             energy=1.00D-06.
 No special actions if energy rises.
 Integral accuracy reduced to 1.0D-05 until final iterations.
 Initial convergence to 1.0D-05 achieved.  Increase integral accuracy.
 SCF Done:  E(UB3LYP) =  -164.078420831     A.U. after   10 cycles
            NFock= 10  Conv=0.31D-08     -V/T= 2.0098
 <Sx>= 0.0000 <Sy>= 0.0000 <Sz>= 0.0000 <S**2>=-0.0000 S=-0.0000
 <L.S>= 0.000000000000E+00
 Annihilation of the first spin contaminant:
 S**2 before annihilation    -0.0000,   after     0.0000
 Calling FoFJK, ICntrl=      2127 FMM=F ISym2X=0 I1Cent= 0 IOpClX= 1 NMat=1 NMatS=1 NMatT=0.
 ***** Axes restored to original set *****
 -------------------------------------------------------------------
 Center     Atomic                   Forces (Hartrees/Bohr)
 Number     Number              X              Y              Z
 -------------------------------------------------------------------
      1        7           0.002282741    0.001000146    0.000559114
      2        5           0.002390622   -0.000211781   -0.000754501
      3        7          -0.002242442    0.001032951   -0.000579740
      4        5          -0.002365723   -0.000263220    0.000797200
      5        1           0.002918554   -0.000221973   -0.001282223
      6        1          -0.001359702    0.001598716   -0.000102215
      7        1           0.000728519   -0.000865873   -0.001047096
      8        1           0.000927990   -0.001287947   -0.000474693
      9        1          -0.002977662   -0.000223949    0.001303895
     10        1          -0.000917362   -0.001290030    0.000479313
     11        1          -0.000765824   -0.000875177    0.000989537
     12        1           0.001380289    0.001608137    0.000111408
 -------------------------------------------------------------------
 Cartesian Forces:  Max     0.002977662 RMS     0.001349097

 GradGradGradGradGradGradGradGradGradGradGradGradGradGradGradGradGradGrad
 Berny optimization.
 Using GEDIIS/GDIIS optimizer.
 FormGI is forming the generalized inverse of G from B-inverse, IUseBI=4.
 Internal  Forces:  Max     0.003256619 RMS     0.001031069
 Search for a local minimum.
 Step number   3 out of a maximum of   60
 All quantities printed in internal units (Hartrees-Bohrs-Radians)
 Mixed Optimization -- RFO/linear search
 Update second derivatives using D2CorX and points    1    3    2
 DE=  1.29D-04 DEPred=-9.25D-05 R=-1.39D+00
 Trust test=-1.39D+00 RLast= 1.84D-01 DXMaxT set to 1.50D-01
 ITU= -1  1  0
 Use linear search instead of GDIIS.
     Eigenvalues ---    0.00971   0.01171   0.01844   0.01862   0.01867
     Eigenvalues ---    0.01919   0.02088   0.05017   0.05065   0.08024
     Eigenvalues ---    0.09166   0.11749   0.15549   0.15629   0.15818
     Eigenvalues ---    0.16000   0.16000   0.16019   0.20206   0.20543
     Eigenvalues ---    0.20622   0.24432   0.24854   0.25830   0.41182
     Eigenvalues ---    0.41308   0.46064   0.46101   0.46132   0.49223
 RFO step:  Lambda=-7.54332982D-05 EMin= 9.70963413D-03
 Quartic linear search produced a step of -0.70590.
 Iteration  1 RMS(Cart)=  0.02611437 RMS(Int)=  0.00030630
 Iteration  2 RMS(Cart)=  0.00047881 RMS(Int)=  0.00001177
 Iteration  3 RMS(Cart)=  0.00000012 RMS(Int)=  0.00001177
 Variable       Old X    -DE/DX   Delta X   Delta X   Delta X     New X
                                 (Linear)    (Quad)   (Total)
    R1        2.69573   0.00032   0.00135  -0.00042   0.00093   2.69665
    R2        1.90010   0.00163   0.00247  -0.00032   0.00215   1.90225
    R3        1.89435   0.00326   0.00425   0.00001   0.00427   1.89861
    R4        3.56197  -0.00197   0.00064  -0.01113  -0.01048   3.55148
    R5        2.24693   0.00199   0.00574  -0.00119   0.00455   2.25148
    R6        2.39073   0.00114  -0.00219   0.00354   0.00134   2.39207
    R7        2.69596   0.00029   0.00102  -0.00013   0.00088   2.69685
    R8        1.89447   0.00319   0.00418   0.00000   0.00418   1.89865
    R9        1.90010   0.00163   0.00248  -0.00034   0.00215   1.90225
   R10        2.39080   0.00112  -0.00215   0.00346   0.00130   2.39210
   R11        2.24690   0.00201   0.00573  -0.00114   0.00459   2.25149
    A1        2.16538  -0.00030  -0.00321   0.00227  -0.00095   2.16444
    A2        2.12740   0.00005   0.00210  -0.00177   0.00033   2.12773
    A3        1.98665   0.00024   0.00078  -0.00019   0.00059   1.98724
    A4        2.07909  -0.00129   0.00013  -0.00185  -0.00169   2.07740
    A5        2.10330   0.00008  -0.00270   0.00280   0.00011   2.10341
    A6        2.01441  -0.00034   0.00141   0.00300   0.00440   2.01881
    A7        2.06692   0.00109  -0.00030   0.00020  -0.00007   2.06685
    A8        0.89226   0.00030   0.00472  -0.00961  -0.00489   0.88737
    A9        1.94094   0.00040   0.00388  -0.00124   0.00261   1.94355
   A10        2.12738   0.00005   0.00213  -0.00180   0.00034   2.12772
   A11        2.16526  -0.00029  -0.00320   0.00229  -0.00091   2.16435
   A12        1.98667   0.00023   0.00072  -0.00017   0.00056   1.98723
   A13        2.07902  -0.00127   0.00014  -0.00176  -0.00159   2.07743
   A14        0.89289   0.00023   0.00431  -0.00982  -0.00550   0.88738
   A15        2.06687   0.00109  -0.00032   0.00032   0.00002   2.06689
   A16        2.01434  -0.00031   0.00140   0.00301   0.00439   2.01874
   A17        2.10331   0.00006  -0.00264   0.00272   0.00009   2.10340
   A18        1.94086   0.00042   0.00402  -0.00139   0.00260   1.94346
    D1       -0.44167  -0.00001  -0.01715   0.01590  -0.00125  -0.44292
    D2        2.98085   0.00030  -0.00584   0.01124   0.00542   2.98627
    D3        0.56965  -0.00006  -0.01111   0.00539  -0.00573   0.56391
    D4        2.60101  -0.00007  -0.02136   0.01990  -0.00146   2.59955
    D5       -0.25966   0.00025  -0.01005   0.01525   0.00521  -0.25445
    D6       -2.67086  -0.00012  -0.01533   0.00940  -0.00594  -2.67681
    D7        0.02262   0.00138   0.04907   0.00511   0.05418   0.07680
    D8       -1.73136   0.00079   0.04549   0.00389   0.04938  -1.68199
    D9        2.88869   0.00094   0.03776   0.01065   0.04841   2.93710
   D10        2.88915   0.00092   0.03759   0.01010   0.04769   2.93684
   D11        1.13517   0.00034   0.03400   0.00888   0.04288   1.17805
   D12       -0.52796   0.00049   0.02628   0.01564   0.04192  -0.48604
   D13       -1.73113   0.00079   0.04529   0.00374   0.04904  -1.68210
   D14        2.79807   0.00020   0.04171   0.00252   0.04423   2.84230
   D15        1.13494   0.00035   0.03399   0.00928   0.04327   1.17821
   D16        2.60009  -0.00004  -0.02112   0.02011  -0.00101   2.59907
   D17       -2.67108  -0.00015  -0.01557   0.00939  -0.00620  -2.67728
   D18       -0.26010   0.00025  -0.00998   0.01487   0.00490  -0.25520
   D19       -0.44117   0.00002  -0.01677   0.01588  -0.00090  -0.44207
   D20        0.57084  -0.00010  -0.01122   0.00515  -0.00608   0.56476
   D21        2.98182   0.00030  -0.00563   0.01063   0.00502   2.98684
         Item               Value     Threshold  Converged?
 Maximum Force            0.003257     0.000450     NO 
 RMS     Force            0.001031     0.000300     NO 
 Maximum Displacement     0.077870     0.001800     NO 
 RMS     Displacement     0.026150     0.001200     NO 
 Predicted change in Energy=-6.654554D-05
 GradGradGradGradGradGradGradGradGradGradGradGradGradGradGradGradGradGrad

                          Input orientation:                          
 ---------------------------------------------------------------------
 Center     Atomic      Atomic             Coordinates (Angstroms)
 Number     Number       Type             X           Y           Z
 ---------------------------------------------------------------------
      1          7           0       -1.632616   -0.557029   -0.029027
      2          5           0       -0.938656    0.689783   -0.044281
      3          7           0        1.632524   -0.557287    0.029018
      4          5           0        0.938623    0.689674    0.044235
      5          1           0        2.548819   -0.650293   -0.372510
      6          1           0       -1.516921    1.706823    0.180995
      7          1           0       -0.094511    0.836109   -0.976123
      8          1           0       -1.231837   -1.428310   -0.334875
      9          1           0       -2.549064   -0.649862    0.372137
     10          1           0        1.231361   -1.428605    0.334254
     11          1           0        0.094495    0.836020    0.976110
     12          1           0        1.517042    1.706686   -0.180793
 ---------------------------------------------------------------------
                    Distance matrix (angstroms):
                    1          2          3          4          5
     1  N    0.000000
     2  B    1.427008   0.000000
     3  N    3.265656   2.858588   0.000000
     4  B    2.858479   1.879364   1.427109   0.000000
     5  H    4.196555   3.750469   1.004725   2.135865   0.000000
     6  H    2.276515   1.191432   3.881790   2.661389   4.732083
     7  H    2.281138   1.265828   2.436085   1.459431   3.092075
     8  H    1.006627   2.157943   3.015903   3.056220   3.860064
     9  H    1.004703   2.135759   4.196663   3.750445   5.151982
    10  H    3.015623   3.056114   1.006626   2.157988   1.685521
    11  H    2.435938   1.459446   2.281189   1.265843   3.170427
    12  H    3.881723   2.661424   2.276605   1.191436   2.580052
                    6          7          8          9         10
     6  H    0.000000
     7  H    2.029856   0.000000
     8  H    3.190056   2.613868   0.000000
     9  H    2.579888   3.170291   1.685507   0.000000
    10  H    4.172224   2.933249   2.552466   3.859986   0.000000
    11  H    1.996789   1.961360   2.933434   3.092092   2.613995
    12  H    3.055457   1.996886   4.172323   4.732047   3.190131
                   11         12
    11  H    0.000000
    12  H    2.029808   0.000000
 Stoichiometry    B2H8N2
 Framework group  C1[X(B2H8N2)]
 Deg. of freedom    30
 Full point group                 C1      NOp   1
 Largest Abelian subgroup         C1      NOp   1
 Largest concise Abelian subgroup C1      NOp   1
                         Standard orientation:                         
 ---------------------------------------------------------------------
 Center     Atomic      Atomic             Coordinates (Angstroms)
 Number     Number       Type             X           Y           Z
 ---------------------------------------------------------------------
      1          7           0        1.632336   -0.557971    0.038088
      2          5           0        0.938408    0.688899    0.049543
      3          7           0       -1.632428   -0.557947   -0.038221
      4          5           0       -0.938346    0.688955   -0.049474
      5          1           0       -2.550963   -0.650901    0.358169
      6          1           0        1.518011    1.705904   -0.172428
      7          1           0        0.089076    0.835235    0.976657
      8          1           0        1.229779   -1.429239    0.341632
      9          1           0        2.551007   -0.650857   -0.357949
     10          1           0       -1.229638   -1.429279   -0.341266
     11          1           0       -0.089006    0.835291   -0.976602
     12          1           0       -1.517928    1.706002    0.172383
 ---------------------------------------------------------------------
 Rotational constants (GHZ):          14.8807592           4.3043315           3.4551495
 Standard basis: 6-31G(d,p) (6D, 7F)
 There are   100 symmetry adapted cartesian basis functions of A   symmetry.
 There are   100 symmetry adapted basis functions of A   symmetry.
   100 basis functions,   168 primitive gaussians,   100 cartesian basis functions
    16 alpha electrons       16 beta electrons
       nuclear repulsion energy       111.9783479846 Hartrees.
 NAtoms=   12 NActive=   12 NUniq=   12 SFac= 1.00D+00 NAtFMM=   60 NAOKFM=F Big=F
 Integral buffers will be    131072 words long.
 Raffenetti 2 integral format.
 Two-electron integral symmetry is turned on.
 One-electron integrals computed using PRISM.
 NBasis=   100 RedAO= T EigKep=  4.58D-03  NBF=   100
 NBsUse=   100 1.00D-06 EigRej= -1.00D+00 NBFU=   100
 Lowest energy guess from the checkpoint file:  "/scratch/1311849/Gau-12470.chk"
 B after Tr=     0.000000    0.000000   -0.000000
         Rot=    1.000000    0.000006    0.000443    0.000032 Ang=   0.05 deg.
 B after Tr=    -0.000000   -0.000000   -0.000000
         Rot=    1.000000    0.000020    0.000900    0.000010 Ang=   0.10 deg.
 Initial guess <Sx>= 0.0000 <Sy>= 0.0000 <Sz>= 0.0000 <S**2>=-0.0000 S=-0.0000
 Keep R1 and R2 ints in memory in canonical form, NReq=29209870.
 Requested convergence on RMS density matrix=1.00D-08 within1024 cycles.
 Requested convergence on MAX density matrix=1.00D-06.
 Requested convergence on             energy=1.00D-06.
 No special actions if energy rises.
 Integral accuracy reduced to 1.0D-05 until final iterations.
 Initial convergence to 1.0D-05 achieved.  Increase integral accuracy.
 SCF Done:  E(UB3LYP) =  -164.078604203     A.U. after    9 cycles
            NFock=  9  Conv=0.94D-08     -V/T= 2.0098
 <Sx>= 0.0000 <Sy>= 0.0000 <Sz>= 0.0000 <S**2>=-0.0000 S=-0.0000
 <L.S>= 0.000000000000E+00
 Annihilation of the first spin contaminant:
 S**2 before annihilation    -0.0000,   after    -0.0000
 Calling FoFJK, ICntrl=      2127 FMM=F ISym2X=0 I1Cent= 0 IOpClX= 1 NMat=1 NMatS=1 NMatT=0.
 ***** Axes restored to original set *****
 -------------------------------------------------------------------
 Center     Atomic                   Forces (Hartrees/Bohr)
 Number     Number              X              Y              Z
 -------------------------------------------------------------------
      1        7           0.000179288   -0.000130557   -0.000264335
      2        5           0.001557594   -0.000414239    0.001033538
      3        7          -0.000201611   -0.000070694    0.000250438
      4        5          -0.001526456   -0.000463148   -0.001010358
      5        1           0.001029900   -0.000002851   -0.000159018
      6        1          -0.000493781    0.000604092   -0.000175260
      7        1          -0.000205610    0.000411950   -0.001346324
      8        1           0.000211050   -0.000467088   -0.000124541
      9        1          -0.001047343   -0.000005499    0.000164223
     10        1          -0.000210008   -0.000469920    0.000127323
     11        1           0.000214902    0.000408240    0.001336688
     12        1           0.000492075    0.000599714    0.000167625
 -------------------------------------------------------------------
 Cartesian Forces:  Max     0.001557594 RMS     0.000656622

 GradGradGradGradGradGradGradGradGradGradGradGradGradGradGradGradGradGrad
 Berny optimization.
 Using GEDIIS/GDIIS optimizer.
 FormGI is forming the generalized inverse of G from B-inverse, IUseBI=4.
 Internal  Forces:  Max     0.001021683 RMS     0.000474824
 Search for a local minimum.
 Step number   4 out of a maximum of   60
 All quantities printed in internal units (Hartrees-Bohrs-Radians)
 Mixed Optimization -- En-DIIS/RFO-DIIS
 Update second derivatives using D2CorX and points    1    3    2    4
 DE= -5.46D-05 DEPred=-6.65D-05 R= 8.21D-01
 TightC=F SS=  1.41D+00  RLast= 7.83D-02 DXNew= 2.5227D-01 2.3499D-01
 Trust test= 8.21D-01 RLast= 7.83D-02 DXMaxT set to 2.35D-01
 ITU=  1 -1  1  0
 Use linear search instead of GDIIS.
     Eigenvalues ---    0.00512   0.01132   0.01844   0.01863   0.01876
     Eigenvalues ---    0.01916   0.02272   0.04979   0.04999   0.07973
     Eigenvalues ---    0.11058   0.14909   0.15612   0.15745   0.16000
     Eigenvalues ---    0.16000   0.16008   0.16339   0.20530   0.20622
     Eigenvalues ---    0.21018   0.24775   0.24856   0.27751   0.41209
     Eigenvalues ---    0.42796   0.46095   0.46101   0.46132   0.57083
 RFO step:  Lambda=-6.12908291D-05 EMin= 5.11655502D-03
 Quartic linear search produced a step of -0.13644.
 Iteration  1 RMS(Cart)=  0.00778186 RMS(Int)=  0.00007117
 Iteration  2 RMS(Cart)=  0.00007547 RMS(Int)=  0.00001015
 Iteration  3 RMS(Cart)=  0.00000000 RMS(Int)=  0.00001015
 Variable       Old X    -DE/DX   Delta X   Delta X   Delta X     New X
                                 (Linear)    (Quad)   (Total)
    R1        2.69665   0.00084   0.00013   0.00070   0.00083   2.69749
    R2        1.90225   0.00053   0.00018  -0.00037  -0.00019   1.90206
    R3        1.89861   0.00102   0.00024   0.00005   0.00029   1.89890
    R4        3.55148  -0.00017   0.00155  -0.01088  -0.00932   3.54216
    R5        2.25148   0.00072   0.00049  -0.00098  -0.00049   2.25099
    R6        2.39207   0.00090  -0.00061   0.00784   0.00723   2.39930
    R7        2.69685   0.00077   0.00008   0.00094   0.00101   2.69786
    R8        1.89865   0.00100   0.00024   0.00004   0.00027   1.89893
    R9        1.90225   0.00053   0.00019  -0.00039  -0.00020   1.90205
   R10        2.39210   0.00089  -0.00059   0.00770   0.00710   2.39920
   R11        2.25149   0.00072   0.00048  -0.00095  -0.00047   2.25102
    A1        2.16444   0.00004  -0.00049   0.00356   0.00306   2.16750
    A2        2.12773  -0.00004   0.00036  -0.00249  -0.00214   2.12559
    A3        1.98724   0.00001   0.00007  -0.00025  -0.00019   1.98705
    A4        2.07740   0.00016   0.00026  -0.00014   0.00010   2.07750
    A5        2.10341  -0.00025  -0.00054   0.00102   0.00045   2.10386
    A6        2.01881  -0.00021  -0.00033  -0.00117  -0.00151   2.01730
    A7        2.06685   0.00010  -0.00005   0.00264   0.00257   2.06942
    A8        0.88737   0.00086   0.00158  -0.00088   0.00071   0.88808
    A9        1.94355  -0.00022   0.00039  -0.00692  -0.00654   1.93702
   A10        2.12772  -0.00004   0.00037  -0.00255  -0.00219   2.12553
   A11        2.16435   0.00004  -0.00050   0.00360   0.00309   2.16744
   A12        1.98723   0.00001   0.00006  -0.00020  -0.00015   1.98708
   A13        2.07743   0.00016   0.00024  -0.00010   0.00012   2.07755
   A14        0.88738   0.00086   0.00158  -0.00080   0.00079   0.88817
   A15        2.06689   0.00010  -0.00007   0.00271   0.00262   2.06952
   A16        2.01874  -0.00021  -0.00033  -0.00110  -0.00144   2.01730
   A17        2.10340  -0.00024  -0.00052   0.00093   0.00038   2.10378
   A18        1.94346  -0.00021   0.00042  -0.00703  -0.00662   1.93684
    D1       -0.44292  -0.00027  -0.00314   0.02071   0.01756  -0.42536
    D2        2.98627  -0.00035  -0.00187   0.00639   0.00452   2.99079
    D3        0.56391   0.00069  -0.00137   0.01924   0.01787   0.58179
    D4        2.59955  -0.00014  -0.00393   0.03151   0.02758   2.62713
    D5       -0.25445  -0.00022  -0.00265   0.01719   0.01455  -0.23990
    D6       -2.67681   0.00082  -0.00215   0.03005   0.02789  -2.64891
    D7        0.07680  -0.00007   0.00209  -0.01022  -0.00813   0.06867
    D8       -1.68199  -0.00002   0.00205  -0.00847  -0.00642  -1.68840
    D9        2.93710  -0.00005   0.00069   0.00363   0.00432   2.94142
   D10        2.93684  -0.00005   0.00076   0.00355   0.00431   2.94114
   D11        1.17805  -0.00000   0.00072   0.00530   0.00602   1.18408
   D12       -0.48604  -0.00003  -0.00064   0.01739   0.01676  -0.46928
   D13       -1.68210  -0.00002   0.00206  -0.00837  -0.00631  -1.68841
   D14        2.84230   0.00003   0.00203  -0.00662  -0.00460   2.83771
   D15        1.17821  -0.00000   0.00067   0.00547   0.00614   1.18435
   D16        2.59907  -0.00015  -0.00394   0.03140   0.02745   2.62652
   D17       -2.67728   0.00082  -0.00216   0.03005   0.02788  -2.64940
   D18       -0.25520  -0.00022  -0.00260   0.01697   0.01438  -0.24082
   D19       -0.44207  -0.00028  -0.00312   0.02032   0.01720  -0.42487
[...]
   D12       -0.21390   0.00001   0.00000   0.00085   0.00085  -0.21305
   D13       -1.71283  -0.00000   0.00000  -0.00008  -0.00008  -1.71291
   D14        2.79690  -0.00001   0.00000  -0.00029  -0.00029   2.79660
   D15        1.29147   0.00000   0.00000   0.00030   0.00030   1.29178
   D16       -3.12605   0.00000   0.00000   0.00085   0.00085  -3.12520
   D17       -2.15414   0.00000   0.00000   0.00092   0.00092  -2.15322
   D18        0.15215  -0.00000   0.00000   0.00048   0.00048   0.15262
   D19       -0.53382  -0.00000   0.00000  -0.00005  -0.00005  -0.53388
   D20        0.43809   0.00000   0.00000   0.00001   0.00001   0.43811
   D21        2.74438  -0.00000   0.00000  -0.00043  -0.00043   2.74394
         Item               Value     Threshold  Converged?
 Maximum Force            0.000033     0.000450     YES
 RMS     Force            0.000010     0.000300     YES
 Maximum Displacement     0.000686     0.001800     YES
 RMS     Displacement     0.000222     0.001200     YES
 Predicted change in Energy=-3.121271D-08
 Optimization completed.
    -- Stationary point found.
                           ----------------------------
                           !   Optimized Parameters   !
                           ! (Angstroms and Degrees)  !
 --------------------------                            --------------------------
 ! Name  Definition              Value          Derivative Info.                !
 --------------------------------------------------------------------------------
 ! R1    R(1,2)                  1.4385         -DE/DX =    0.0                 !
 ! R2    R(1,8)                  1.009          -DE/DX =    0.0                 !
 ! R3    R(1,9)                  1.0071         -DE/DX =    0.0                 !
 ! R4    R(2,4)                  1.8151         -DE/DX =    0.0                 !
 ! R5    R(2,6)                  1.1931         -DE/DX =    0.0                 !
 ! R6    R(2,7)                  1.3046         -DE/DX =    0.0                 !
 ! R7    R(3,4)                  1.4385         -DE/DX =    0.0                 !
 ! R8    R(3,5)                  1.0071         -DE/DX =    0.0                 !
 ! R9    R(3,10)                 1.009          -DE/DX =    0.0                 !
 ! R10   R(4,11)                 1.3046         -DE/DX =    0.0                 !
 ! R11   R(4,12)                 1.1931         -DE/DX =    0.0                 !
 ! A1    A(2,1,8)              121.6771         -DE/DX =    0.0                 !
 ! A2    A(2,1,9)              119.0031         -DE/DX =    0.0                 !
 ! A3    A(8,1,9)              112.325          -DE/DX =    0.0                 !
 ! A4    A(1,2,4)              118.2784         -DE/DX =    0.0                 !
 ! A5    A(1,2,6)              120.3847         -DE/DX =    0.0                 !
 ! A6    A(1,2,7)              116.3865         -DE/DX =    0.0                 !
 ! A7    A(4,2,6)              120.8625         -DE/DX =    0.0                 !
 ! A8    A(4,2,7)               49.0645         -DE/DX =    0.0                 !
 ! A9    A(6,2,7)              107.0806         -DE/DX =    0.0                 !
 ! A10   A(4,3,5)              119.009          -DE/DX =    0.0                 !
 ! A11   A(4,3,10)             121.6883         -DE/DX =    0.0                 !
 ! A12   A(5,3,10)             112.3291         -DE/DX =    0.0                 !
 ! A13   A(2,4,3)              118.2771         -DE/DX =    0.0                 !
 ! A14   A(2,4,11)              49.062          -DE/DX =    0.0                 !
 ! A15   A(2,4,12)             120.8635         -DE/DX =    0.0                 !
 ! A16   A(3,4,11)             116.3795         -DE/DX =    0.0                 !
 ! A17   A(3,4,12)             120.3858         -DE/DX =    0.0                 !
 ! A18   A(11,4,12)            107.0841         -DE/DX =    0.0                 !
 ! D1    D(8,1,2,4)            -30.5786         -DE/DX =    0.0                 !
 ! D2    D(8,1,2,6)            157.2552         -DE/DX =    0.0                 !
 ! D3    D(8,1,2,7)             25.1133         -DE/DX =    0.0                 !
 ! D4    D(9,1,2,4)           -179.0575         -DE/DX =    0.0                 !
 ! D5    D(9,1,2,6)              8.7763         -DE/DX =    0.0                 !
 ! D6    D(9,1,2,7)           -123.3655         -DE/DX =    0.0                 !
 ! D7    D(1,2,4,3)              3.483          -DE/DX =    0.0                 !
 ! D8    D(1,2,4,11)           -98.1286         -DE/DX =    0.0                 !
 ! D9    D(1,2,4,12)           175.617          -DE/DX =    0.0                 !
 ! D10   D(6,2,4,3)            175.6101         -DE/DX =    0.0                 !
 ! D11   D(6,2,4,11)            73.9986         -DE/DX =    0.0                 !
 ! D12   D(6,2,4,12)           -12.2558         -DE/DX =    0.0                 !
 ! D13   D(7,2,4,3)            -98.1381         -DE/DX =    0.0                 !
 ! D14   D(7,2,4,11)           160.2503         -DE/DX =    0.0                 !
 ! D15   D(7,2,4,12)            73.9959         -DE/DX =    0.0                 !
 ! D16   D(5,3,4,2)           -179.1097         -DE/DX =    0.0                 !
 ! D17   D(5,3,4,11)          -123.4231         -DE/DX =    0.0                 !
 ! D18   D(5,3,4,12)             8.7173         -DE/DX =    0.0                 !
 ! D19   D(10,3,4,2)           -30.5857         -DE/DX =    0.0                 !
 ! D20   D(10,3,4,11)           25.101          -DE/DX =    0.0                 !
 ! D21   D(10,3,4,12)          157.2413         -DE/DX =    0.0                 !
 --------------------------------------------------------------------------------
 GradGradGradGradGradGradGradGradGradGradGradGradGradGradGradGradGradGrad


 ----------------------------------------------------------------------

 Electric dipole moment (input orientation):
 (Debye = 10**-18 statcoulomb cm , SI units = C m)
                  (au)            (Debye)         (10**-30 SI)
   Tot        0.710104D+00      0.180490D+01      0.602051D+01
   x          0.157082D-03      0.399262D-03      0.133180D-02
   y         -0.710104D+00     -0.180490D+01     -0.602051D+01
   z         -0.451941D-03     -0.114872D-02     -0.383172D-02

 Dipole polarizability, Alpha (input orientation).
 (esu units = cm**3 , SI units = C**2 m**2 J**-1)
 Alpha(0;0):
               (au)            (10**-24 esu)      (10**-40 SI)
   iso        0.416346D+02      0.616962D+01      0.686462D+01
   aniso      0.236218D+02      0.350039D+01      0.389471D+01
   xx         0.544820D+02      0.807340D+01      0.898287D+01
   yx        -0.140025D-02     -0.207496D-03     -0.230871D-03
   yy         0.426384D+02      0.631836D+01      0.703012D+01
   zx        -0.265311D+01     -0.393151D+00     -0.437439D+00
   zy         0.486457D-03      0.720855D-04      0.802059D-04
   zz         0.277836D+02      0.411710D+01      0.458089D+01

 ----------------------------------------------------------------------

 Dipole orientation:
     7         -2.99233761          0.26820011          1.11581524
     5         -1.71118576          0.11055159         -1.27660164
     7          2.99132365         -0.26693300          1.11792877
     5          1.71168462         -0.11215273         -1.27543798
     1          4.89174556         -0.36540580          1.14373889
     1         -2.85130039          0.39076462         -3.20137469
     1         -0.21825839         -1.82553052         -1.59455953
     1         -2.28898171         -0.55652731          2.68459063
     1         -4.89286448          0.36518143          1.14018526
     1          2.28738854          0.55970758          2.68541443
     1          0.21888181          1.82352097         -1.59629004
     1          2.85300544         -0.39443798         -3.19919307

 Electric dipole moment (dipole orientation):
 (Debye = 10**-18 statcoulomb cm , SI units = C m)
                  (au)            (Debye)         (10**-30 SI)
   Tot        0.710104D+00      0.180490D+01      0.602051D+01
   x          0.000000D+00      0.000000D+00      0.000000D+00
   y          0.000000D+00      0.000000D+00      0.000000D+00
   z          0.710104D+00      0.180490D+01      0.602051D+01

 Dipole polarizability, Alpha (dipole orientation).
 (esu units = cm**3 , SI units = C**2 m**2 J**-1)
 Alpha(0;0):
               (au)            (10**-24 esu)      (10**-40 SI)
   iso        0.416346D+02      0.616962D+01      0.686462D+01
   aniso      0.236218D+02      0.350039D+01      0.389471D+01
   xx         0.544832D+02      0.807357D+01      0.898306D+01
   yx        -0.264720D+01     -0.392275D+00     -0.436465D+00
   yy         0.277824D+02      0.411693D+01      0.458070D+01
   zx         0.570688D-02      0.845672D-03      0.940937D-03
   zy         0.838217D-02      0.124211D-02      0.138203D-02
   zz         0.426384D+02      0.631835D+01      0.703012D+01

 ----------------------------------------------------------------------
 1\1\GINC-MNODE009\Freq\UB3LYP\6-31G(d,p)\B2H8N2\MARIAHARRIS\03-Jul-202
 0\0\\#N Geom=AllCheck Guess=TCheck SCRF=Check GenChk UB3LYP/6-31G(d,p)
  Freq\\something title\\0,1\N,-1.5833147625,-0.5909046879,0.1418998398
 \B,-0.9056569512,0.675310673,0.0591316269\N,1.5830398279,-0.5911420145
 ,-0.1419815014\B,0.9056220078,0.6751708269,-0.0591194666\H,2.588691227
 6,-0.6045443753,-0.1943222032\H,-1.5091720912,1.6936285654,0.208195652
 6\H,-0.1158978493,0.8443935828,-0.9654663456\H,-1.2110278291,-1.420704
 5588,-0.2951377068\H,-2.5890160104,-0.6040560165,0.1934343974\H,1.2108
 13743,-1.4209803533,0.2950122462\H,0.1158539969,0.8441316588,0.9654775
 143\H,1.5093246905,1.6934066995,-0.2079840535\\Version=EM64L-G16RevA.0
 3\State=1-A\HF=-164.0792012\S2=0.\S2-1=0.\S2A=0.\RMSD=9.995e-10\RMSF=1
 .681e-05\ZeroPoint=0.0994519\Thermal=0.1057622\Dipole=0.0001571,-0.710
 1036,-0.0004519\DipoleDeriv=-0.6786964,-0.1906229,-0.0537532,-0.572586
 2,-0.7865955,0.1309253,0.1438406,0.2185614,-0.638458,1.1791092,0.36197
 9,-0.0207481,0.5251456,0.7639644,0.0019871,-0.0771934,0.0337834,0.3243
 987,-0.6786405,0.1905299,-0.0540189,0.572489,-0.7867485,-0.1308963,0.1
 434294,-0.2185116,-0.6385345,1.1790556,-0.3620712,-0.0206689,-0.525219
 2,0.7641832,-0.0019616,-0.0771028,-0.0336893,0.3243901,0.1161094,0.002
 5962,0.0112512,0.021488,0.16249,0.029388,-0.0656565,0.0670985,0.283784
 6,-0.2023778,0.0789985,0.014362,0.0747516,-0.2271162,-0.0185873,0.0004
 901,-0.034194,-0.0558426,-0.5508183,0.028402,0.0013374,0.0311425,-0.03
 41298,0.0093794,0.0053768,0.0054208,-0.1666784,0.1366705,0.0182803,0.0
 476923,0.0469643,0.1212842,-0.0617464,-0.0065294,-0.1069069,0.2527825,
 0.1160718,-0.0025397,0.0111119,-0.0214064,0.16251,-0.029392,-0.0659752
 ,-0.0671211,0.2837525,0.1366685,-0.0182206,0.0477544,-0.0469362,0.1213
 032,0.0617031,-0.0064347,0.1067698,0.252857,-0.5507381,-0.0283232,0.00
 13222,-0.0310719,-0.0340464,-0.009343,0.0053597,-0.005353,-0.1666206,-
 0.2024139,-0.0790081,0.0143578,-0.0747612,-0.2270984,0.0185436,0.00039
 55,0.034142,-0.0558312\Polar=54.4819879,-0.0014003,42.6383754,-2.65311
 22,0.0004865,27.7835581\Quadrupole=2.5714413,-0.3697308,-2.2017106,-0.
 001137,0.8668869,0.00053\PG=C01 [X(B2H8N2)]\NImag=0\\0.72070779,0.0167
 4695,0.65372968,-0.11532268,0.17800378,0.11496944,-0.12371949,-0.07888
 927,0.00570783,0.35193021,-0.09844658,-0.25613797,-0.01150149,0.011120
 56,0.51190766,0.02294744,0.01343552,-0.03579169,-0.05944455,0.01285089
 ,0.16867182,0.00021735,-0.00294629,0.00182167,-0.00298682,0.01873126,-
 0.00196083,0.72061489,0.00294807,0.00969803,-0.00332881,-0.01200251,-0
 .00964576,0.00560735,-0.01686882,0.65388955,0.00182288,0.00332458,-0.0
 0100563,-0.00549966,-0.00558246,-0.00600326,-0.11575202,-0.17795714,0.
 11498848,-0.00298670,0.01200365,-0.00550293,-0.08353002,-0.01785585,0.
 02507624,-0.12368922,0.07888055,0.00575282,0.35191711,-0.01873238,-0.0
 0964247,0.00558803,0.01785871,-0.02300569,-0.00474868,0.09844333,-0.25
 620212,0.01146378,-0.01109090,0.51193872,-0.00196705,-0.00559493,-0.00
 600296,0.02507508,0.00471875,0.06498657,0.02296878,-0.01345195,-0.0357
 9990,-0.05948834,-0.01278510,0.16866137,0.00029568,0.00068711,-0.00015
 841,-0.00089550,0.00046259,-0.00033761,-0.46352194,0.00353245,0.035067
 47,-0.00976412,-0.00356782,-0.00113062,0.48072403,-0.00071830,0.000599
 49,-0.00011304,-0.00023286,-0.00337663,-0.00074559,0.01101502,-0.05664
 515,0.01529873,0.02474772,0.00343881,-0.00140298,-0.00454416,0.0548530
 8,-0.00069064,-0.00023699,0.00081800,-0.00062411,0.00038729,-0.0054493
 7,0.01083104,0.01737249,-0.00408123,0.00601500,-0.00371939,-0.00027203
 ,-0.03105541,-0.01288307,0.01177216,0.01053740,-0.01049021,-0.00293871
 ,-0.08949516,0.08349403,0.01489273,-0.00388080,-0.00078156,0.00110460,
 -0.00089505,0.00857306,-0.00140771,-0.00025427,0.00102179,0.00007337,0
 .09328248,0.00964562,-0.01506592,-0.00419829,0.08084798,-0.17661421,-0
 .02070624,0.00000444,-0.00017979,-0.00032447,-0.00274908,0.00256623,0.
 00147670,-0.00023302,0.00010881,-0.00009467,-0.08949874,0.18963202,-0.
 00138827,-0.00023790,0.00476068,0.01584311,-0.02040281,-0.03151597,0.0
 0073367,-0.00041947,0.00264526,-0.00331968,0.00013771,-0.01301747,0.00
 022538,0.00012342,0.00167958,-0.01416528,0.02343045,0.02854691,-0.0112
 5730,-0.01475656,0.01266543,-0.03977772,0.00246438,0.01807151,-0.01441
 214,0.01998257,0.00038799,-0.01415234,-0.00828291,-0.00857302,0.000467
 66,0.00062101,-0.00541865,-0.00349107,0.00014919,0.01098613,0.09480547
 ,-0.00977992,-0.00282181,0.00764129,-0.00641197,-0.01942080,0.00658322
 ,0.00999096,-0.00398614,0.00372531,0.00240895,-0.01327480,0.00431768,0
 .00026119,-0.00061156,0.00161075,0.00453120,0.00111859,-0.00839592,0.0
 0320431,0.03886541,-0.00033631,0.00259989,0.00499208,0.02914899,0.0073
 2259,-0.08358931,0.00297939,0.00146673,0.00719108,-0.01556744,0.003054
 50,-0.05781781,0.00070145,-0.00066389,0.00089118,-0.00123167,-0.000659
 81,0.00246628,-0.01359705,-0.01221662,0.14802324,-0.11297006,0.1028238
 6,0.06671579,0.01016039,-0.00696450,-0.00755714,0.00102468,0.00256658,
 0.00080484,0.00314883,-0.00371927,-0.00054751,0.00016874,0.00055649,0.
 00049083,-0.00039826,-0.00163162,0.00101731,-0.00244396,-0.00034051,0.
 00025450,0.11531582,0.11958259,-0.31919631,-0.15308801,0.01147195,-0.0
 1701365,-0.00960747,0.00035228,-0.00037309,0.00028119,-0.00064461,0.00
 057106,-0.00172873,-0.00003711,0.00011926,0.00010700,-0.00314469,-0.00
 245955,-0.00019704,0.00213417,0.00094599,0.00042444,-0.12583218,0.3348
 3662,0.08115367,-0.17189850,-0.08786283,-0.00015095,0.00959359,-0.0031
 1690,-0.00037790,0.00095123,-0.00066394,0.00281843,-0.00206114,0.00293
 202,0.00011613,0.00036801,-0.00034139,0.00130849,0.00192959,0.00249760
 ,-0.00386958,-0.00017339,0.00035194,-0.07625740,0.16161731,0.09044875,
 -0.46354500,-0.00342374,0.03471429,-0.00977251,0.00357018,-0.00114065,
 0.00029574,-0.00068701,-0.00015826,-0.00089465,-0.00046269,-0.00033618
 ,-0.00002269,-0.00007331,0.00000164,0.00142992,0.00074190,-0.00003409,
 0.00130402,0.00024710,-0.00047252,-0.00993722,-0.00435116,-0.00292882,
 0.48075837,-0.01089753,-0.05663099,-0.01532053,-0.02475053,0.00344010,
 0.00138572,0.00071894,0.00059908,0.00011262,0.00023109,-0.00337643,0.0
 0074191,0.00007332,0.00015400,0.00005582,0.00151536,0.00075845,0.00017
 569,-0.00193205,-0.00149202,-0.00036090,0.03281229,0.00208571,0.000139
 38,0.00443027,0.05484624,0.01044494,-0.01738966,-0.00405023,0.00602470
 ,0.00372951,-0.00027357,-0.00069078,0.00023974,0.00081917,-0.00061828,
 -0.00038836,-0.00545078,0.00000199,-0.00005532,0.00002068,-0.00064908,
 -0.00076276,-0.00204265,0.00411675,0.00187651,0.00018368,0.01691686,0.
 00147842,-0.00316751,-0.03068804,0.01289582,0.01173339,0.00102306,-0.0
 0256658,0.00080537,0.00315078,0.00371877,-0.00054712,-0.11294311,-0.10
 280627,0.06674697,0.01015602,0.00695632,-0.00755715,-0.00993337,-0.032
 81279,0.01690653,-0.00003459,-0.00028004,0.00002810,-0.00191881,0.0004
 8397,-0.00010300,-0.00211672,0.00006952,-0.00176265,0.00016841,-0.0005
 5662,0.00048971,0.11528990,-0.00035228,-0.00037323,-0.00028073,0.00064
 491,0.00057030,0.00172740,-0.11957663,-0.31926533,0.15310452,-0.011472
 36,-0.01700542,0.00960364,0.00435464,0.00209465,-0.00148648,-0.0002594
 6,0.00015119,-0.00045117,-0.00014076,-0.00028034,-0.00057481,-0.000069
 00,0.00061388,0.00031345,0.00003718,0.00011932,-0.00010712,0.12582331,
 0.33488901,-0.00037793,-0.00095056,-0.00066249,0.00281900,0.00205956,0
 .00293090,0.08117293,0.17187708,-0.08784473,-0.00015861,-0.00959305,-0
 .00311475,-0.00292020,-0.00011249,-0.00317749,-0.00014378,-0.00001055,
 -0.00055886,0.00009398,0.00079102,-0.00080090,-0.00176274,-0.00031352,
 0.00028239,0.00011610,-0.00036791,-0.00034225,-0.07627886,-0.16162066,
 0.09043996,-0.01442236,-0.01997104,0.00038839,-0.01416735,0.00827722,-
 0.00858877,-0.01125555,0.01474837,0.01266032,-0.03978643,-0.00246159,0
 .01807929,0.00130710,0.00193479,0.00412044,-0.00639533,0.00229698,-0.0
 1013202,-0.00272508,0.00115018,-0.00472556,-0.00191770,0.00013934,0.00
 009478,0.00046983,-0.00062280,-0.00542316,-0.00244484,-0.00213309,-0.0
 0386892,0.09482825,-0.00999254,-0.00397797,-0.00372632,-0.00240710,-0.
 01327150,-0.00430780,0.00978315,-0.00282215,-0.00764395,0.00640735,-0.
 01941490,-0.00657272,-0.00024772,-0.00149377,-0.00187791,0.00574549,-0
 .00010266,0.00615254,-0.00114772,0.00105763,-0.00038632,-0.00048222,-0
 .00028095,-0.00079007,-0.00026170,-0.00061256,-0.00161118,0.00034110,0
 .00094601,0.00017435,-0.00320883,0.03885457,0.00298023,-0.00146945,0.0
 0718935,-0.01558363,-0.00304406,-0.05783074,-0.00033744,-0.00259960,0.
 00499064,0.02915843,-0.00731569,-0.08359525,-0.00047328,0.00036142,0.0
 0018313,0.00295147,0.00000441,0.00409709,-0.00472658,0.00039150,-0.025
 98698,-0.00010301,0.00057471,-0.00080086,0.00070165,0.00066482,0.00089
 077,0.00025460,-0.00042409,0.00035156,-0.01358880,0.01219628,0.1480418
 9,-0.00388035,0.00078211,0.00110397,-0.00089682,-0.00857207,-0.0014112
 4,0.01053691,0.01048757,-0.00293795,-0.08952344,-0.08351386,0.01488444
 ,0.00142868,-0.00151540,-0.00065004,-0.00040527,0.00070640,0.00020565,
 -0.00639873,-0.00574545,0.00294922,-0.00003456,0.00025990,-0.00014420,
 -0.00025423,-0.00102174,0.00007438,-0.00039674,0.00314355,0.00130903,-
 0.00349055,-0.00452926,-0.00123364,0.09331509,-0.00000369,-0.00018054,
 0.00032412,0.00275014,0.00256815,-0.00147432,-0.00964763,-0.01506713,0
 .00419729,-0.08086650,-0.17659300,0.02067774,-0.00074146,0.00075901,0.
 00076517,-0.00070628,0.00008684,0.00008450,-0.00229562,-0.00010016,-0.
 00000579,0.00028006,0.00015102,0.00001053,0.00023297,0.00010911,0.0000
 9440,0.00162931,-0.00246004,-0.00193326,-0.00014955,0.00111825,0.00065
 974,0.08951827,0.18960849,0.00073372,0.00041422,0.00264629,-0.00331582
 ,-0.00013135,-0.01301849,-0.00138852,0.00024235,0.00476407,0.01583437,
 0.02036740,-0.03150899,-0.00003687,-0.00017520,-0.00204322,0.00020557,
 -0.00008437,0.00044155,-0.01013691,-0.00615135,0.00409552,0.00002768,0
 .00045168,-0.00055927,0.00022488,-0.00012244,0.00167931,0.00101751,0.0
 0019608,0.00249666,0.01098401,0.00839311,0.00246940,-0.01414961,-0.023
 40014,0.02853717\\-0.00000319,0.00004294,0.00001396,-0.00003292,-0.000
 01457,0.00000071,-0.00000500,0.00004262,-0.00000718,0.00003736,-0.0000
 1101,0.00000017,0.00000550,-0.00001051,-0.00000076,-0.00000493,-0.0000
 0492,0.00001806,0.00001960,-0.00000368,-0.00002748,0.00000690,-0.00000
 890,-0.00000337,-0.00000569,-0.00001083,-0.00000426,-0.00000244,-0.000
 00879,0.00000450,-0.00002199,-0.00000713,0.00002170,0.00000680,-0.0000
 0523,-0.00001605\\\@


 DO NOT LET SELFISH MEN OR GREEDY INTERESTS SKIN YOUR COUNTRY OF ITS
 BEAUTY, ITS RICHES, OR ITS ROMANCE. -- THEODORE ROOSEVELT
 Job cpu time:       0 days  0 hours 11 minutes 26.0 seconds.
 Elapsed time:       0 days  0 hours  2 minutes 51.7 seconds.
 File lengths (MBytes):  RWF=     29 Int=      0 D2E=      0 Chk=      2 Scr=      1
 Normal termination of Gaussian 16 at Fri Jul  3 19:23:57 2020.
