 Entering Gaussian System, Link 0=/opt/gaussian/g16/legacy/g16/g16
 Initial command:
 /opt/gaussian/g16/legacy/g16/l1.exe "/scratch/1311840/Gau-8888.inp" -scrdir="/scratch/1311840/"
 Entering Link 1 = /opt/gaussian/g16/legacy/g16/l1.exe PID=      8904.
  
 Copyright (c) 1988,1990,1992,1993,1995,1998,2003,2009,2016,
            Gaussian, Inc.  All Rights Reserved.
  
 This is part of the Gaussian(R) 16 program.  It is based on
 the Gaussian(R) 09 system (copyright 2009, Gaussian, Inc.),
 the Gaussian(R) 03 system (copyright 2003, Gaussian, Inc.),
 the Gaussian(R) 98 system (copyright 1998, Gaussian, Inc.),
 the Gaussian(R) 94 system (copyright 1995, Gaussian, Inc.),
 the Gaussian 92(TM) system (copyright 1992, Gaussian, Inc.),
 the Gaussian 90(TM) system (copyright 1990, Gaussian, Inc.),
 the Gaussian 88(TM) system (copyright 1988, Gaussian, Inc.),
 the Gaussian 86(TM) system (copyright 1986, Carnegie Mellon
 University), and the Gaussian 82(TM) system (copyright 1983,
 Carnegie Mellon University). Gaussian is a federally registered
 trademark of Gaussian, Inc.
  
 This software contains proprietary and confidential information,
 including trade secrets, belonging to Gaussian, Inc.
  
 This software is provided under written license and may be
 used, copied, transmitted, or stored only in accord with that
 written license.
  
 The following legend is applicable only to US Government
 contracts under FAR:
  
                    RESTRICTED RIGHTS LEGEND
  
 Use, reproduction and disclosure by the US Government is
 subject to restrictions as set forth in subparagraphs (a)
 and (c) of the Commercial Computer Software - Restricted
 Rights clause in FAR 52.227-19.
  
 Gaussian, Inc.
 340 Quinnipiac St., Bldg. 40, Wallingford CT 06492
  
  
 ---------------------------------------------------------------
 Warning -- This program may not be used in any manner that
 competes with the business of Gaussian, Inc. or will provide
 assistance to any competitor of Gaussian, Inc.  The licensee
 of this program is prohibited from giving any competitor of
 Gaussian, Inc. access to this program.  By using this program,
 the user acknowledges that Gaussian, Inc. is engaged in the
 business of creating and licensing software in the field of
 computational chemistry and represents and warrants to the
 licensee that it is not a competitor of Gaussian, Inc. and that
 it will not use this program in any manner prohibited above.
 ---------------------------------------------------------------
  

 Cite this work as:
 Gaussian 16, Revision A.03,
 M. J. Frisch, G. W. Trucks, H. B. Schlegel, G. E. Scuseria, 
 M. A. Robb, J. R. Cheeseman, G. Scalmani, V. Barone, 
 G. A. Petersson, H. Nakatsuji, X. Li, M. Caricato, A. V. Marenich, 
 J. Bloino, B. G. Janesko, R. Gomperts, B. Mennucci, H. P. Hratchian, 
 J. V. Ortiz, A. F. Izmaylov, J. L. Sonnenberg, D. Williams-Young, 
 F. Ding, F. Lipparini, F. Egidi, J. Goings, B. Peng, A. Petrone, 
 T. Henderson, D. Ranasinghe, V. G. Zakrzewski, J. Gao, N. Rega, 
 G. Zheng, W. Liang, M. Hada, M. Ehara, K. Toyota, R. Fukuda, 
 J. Hasegawa, M. Ishida, T. Nakajima, Y. Honda, O. Kitao, H. Nakai, 
 T. Vreven, K. Throssell, J. A. Montgomery, Jr., J. E. Peralta, 
 F. Ogliaro, M. J. Bearpark, J. J. Heyd, E. N. Brothers, K. N. Kudin, 
 V. N. Staroverov, T. A. Keith, R. Kobayashi, J. Normand, 
 K. Raghavachari, A. P. Rendell, J. C. Burant, S. S. Iyengar, 
 J. Tomasi, M. Cossi, J. M. Millam, M. Klene, C. Adamo, R. Cammi, 
 J. W. Ochterski, R. L. Martin, K. Morokuma, O. Farkas, 
 J. B. Foresman, and D. J. Fox, Gaussian, Inc., Wallingford CT, 2016.
 
 ******************************************
 Gaussian 16:  EM64L-G16RevA.03 25-Dec-2016
                 3-Jul-2020 
 ******************************************
 %mem=16GB
 %nprocshared=4
 Will use up to    4 processors via shared memory.
 ------------------------------------------------
 #opt freq ub3lyp/6-31G(d,p) scf=(maxcycles=1024)
 ------------------------------------------------
 1/18=20,19=15,26=3,38=1/1,3;
 2/9=110,12=2,17=6,18=5,40=1/2;
 3/5=1,6=6,7=101,11=2,25=1,30=1,71=1,74=-5,116=2/1,2,3;
 4//1;
 5/5=2,7=1024,38=5/2;
 6/7=2,8=2,9=2,10=2,28=1/1;
 7//1,2,3,16;
 1/18=20,19=15,26=3/3(2);
 2/9=110/2;
 99//99;
 2/9=110/2;
 3/5=1,6=6,7=101,11=2,25=1,30=1,71=1,74=-5,116=2/1,2,3;
 4/5=5,16=3,69=1/1;
 5/5=2,7=1024,38=5/2;
 7//1,2,3,16;
 1/18=20,19=15,26=3/3(-5);
 2/9=110/2;
 6/7=2,8=2,9=2,10=2,19=2,28=1/1;
 99/9=1/99;
 ---------------
 something title
 ---------------
 Symbolic Z-matrix:
 Charge =  0 Multiplicity = 1
 N                    -1.67795  -0.54583  -0.05019 
 B                    -0.90596   0.66549  -0.01459 
 N                     1.67795  -0.54583   0.05019 
 B                     0.90596   0.66549   0.01459 
 H                     2.64236  -0.52367  -0.23979 
 H                    -1.47879   1.71352   0.039 
 H                    -0.01846   0.79029  -0.97412 
 H                    -1.27466  -1.47677   0.02841 
 H                    -2.64236  -0.52367   0.2398 
 H                     1.27466  -1.47677  -0.02841 
 H                     0.01846   0.79029   0.97412 
 H                     1.47879   1.71352  -0.039 
 

 GradGradGradGradGradGradGradGradGradGradGradGradGradGradGradGradGradGrad
 Berny optimization.
 Initialization pass.
                           ----------------------------
                           !    Initial Parameters    !
                           ! (Angstroms and Degrees)  !
 --------------------------                            --------------------------
 ! Name  Definition              Value          Derivative Info.                !
 --------------------------------------------------------------------------------
 ! R1    R(1,2)                  1.4368         estimate D2E/DX2                !
 ! R2    R(1,8)                  1.0176         estimate D2E/DX2                !
 ! R3    R(1,9)                  1.0073         estimate D2E/DX2                !
 ! R4    R(2,4)                  1.8122         estimate D2E/DX2                !
 ! R5    R(2,6)                  1.1956         estimate D2E/DX2                !
 ! R6    R(2,7)                  1.313          estimate D2E/DX2                !
 ! R7    R(2,11)                 1.3593         estimate D2E/DX2                !
 ! R8    R(3,4)                  1.4368         estimate D2E/DX2                !
 ! R9    R(3,5)                  1.0073         estimate D2E/DX2                !
 ! R10   R(3,10)                 1.0176         estimate D2E/DX2                !
 ! R11   R(4,7)                  1.3593         estimate D2E/DX2                !
 ! R12   R(4,11)                 1.313          estimate D2E/DX2                !
 ! R13   R(4,12)                 1.1956         estimate D2E/DX2                !
 ! A1    A(2,1,8)              123.8079         estimate D2E/DX2                !
 ! A2    A(2,1,9)              119.2565         estimate D2E/DX2                !
 ! A3    A(8,1,9)              112.1686         estimate D2E/DX2                !
 ! A4    A(1,2,4)              122.5211         estimate D2E/DX2                !
 ! A5    A(1,2,6)              118.8613         estimate D2E/DX2                !
 ! A6    A(1,2,7)              115.163          estimate D2E/DX2                !
 ! A7    A(1,2,11)             117.4396         estimate D2E/DX2                !
 ! A8    A(4,2,6)              118.5774         estimate D2E/DX2                !
 ! A9    A(6,2,7)              105.8607         estimate D2E/DX2                !
 ! A10   A(6,2,11)             102.284          estimate D2E/DX2                !
 ! A11   A(7,2,11)              93.6204         estimate D2E/DX2                !
 ! A12   A(4,3,5)              119.2566         estimate D2E/DX2                !
 ! A13   A(4,3,10)             123.8079         estimate D2E/DX2                !
 ! A14   A(5,3,10)             112.1687         estimate D2E/DX2                !
 ! A15   A(2,4,3)              122.5211         estimate D2E/DX2                !
 ! A16   A(2,4,12)             118.5774         estimate D2E/DX2                !
 ! A17   A(3,4,7)              117.4396         estimate D2E/DX2                !
 ! A18   A(3,4,11)             115.163          estimate D2E/DX2                !
 ! A19   A(3,4,12)             118.8613         estimate D2E/DX2                !
 ! A20   A(7,4,11)              93.6204         estimate D2E/DX2                !
 ! A21   A(7,4,12)             102.284          estimate D2E/DX2                !
 ! A22   A(11,4,12)            105.8607         estimate D2E/DX2                !
 ! D1    D(8,1,2,4)              6.1023         estimate D2E/DX2                !
 ! D2    D(8,1,2,6)           -171.5573         estimate D2E/DX2                !
 ! D3    D(8,1,2,7)             61.3077         estimate D2E/DX2                !
 ! D4    D(8,1,2,11)           -47.5085         estimate D2E/DX2                !
 ! D5    D(9,1,2,4)            159.6924         estimate D2E/DX2                !
 ! D6    D(9,1,2,6)            -17.9672         estimate D2E/DX2                !
 ! D7    D(9,1,2,7)           -145.1022         estimate D2E/DX2                !
 ! D8    D(9,1,2,11)           106.0816         estimate D2E/DX2                !
 ! D9    D(1,2,4,3)             -2.1911         estimate D2E/DX2                !
 ! D10   D(1,2,4,12)           175.4749         estimate D2E/DX2                !
 ! D11   D(6,2,4,3)            175.4749         estimate D2E/DX2                !
 ! D12   D(6,2,4,12)            -6.8591         estimate D2E/DX2                !
 ! D13   D(5,3,4,2)            159.693          estimate D2E/DX2                !
 ! D14   D(5,3,4,7)            106.0823         estimate D2E/DX2                !
 ! D15   D(5,3,4,11)          -145.1016         estimate D2E/DX2                !
 ! D16   D(5,3,4,12)           -17.9666         estimate D2E/DX2                !
 ! D17   D(10,3,4,2)             6.1023         estimate D2E/DX2                !
 ! D18   D(10,3,4,7)           -47.5085         estimate D2E/DX2                !
 ! D19   D(10,3,4,11)           61.3077         estimate D2E/DX2                !
 ! D20   D(10,3,4,12)         -171.5573         estimate D2E/DX2                !
 --------------------------------------------------------------------------------
 Trust Radius=3.00D-01 FncErr=1.00D-07 GrdErr=1.00D-06 EigMax=2.50D+02 EigMin=1.00D-04
 Number of steps in this run=     65 maximum allowed number of steps=    100.
 GradGradGradGradGradGradGradGradGradGradGradGradGradGradGradGradGradGrad

                          Input orientation:                          
 ---------------------------------------------------------------------
 Center     Atomic      Atomic             Coordinates (Angstroms)
 Number     Number       Type             X           Y           Z
 ---------------------------------------------------------------------
      1          7           0       -1.677950   -0.545830   -0.050190
      2          5           0       -0.905960    0.665490   -0.014590
      3          7           0        1.677950   -0.545830    0.050190
      4          5           0        0.905960    0.665490    0.014590
      5          1           0        2.642360   -0.523670   -0.239790
      6          1           0       -1.478790    1.713520    0.039000
      7          1           0       -0.018460    0.790290   -0.974120
      8          1           0       -1.274660   -1.476770    0.028410
      9          1           0       -2.642360   -0.523670    0.239800
     10          1           0        1.274660   -1.476770   -0.028410
     11          1           0        0.018460    0.790290    0.974120
     12          1           0        1.478790    1.713520   -0.039000
 ---------------------------------------------------------------------
                    Distance matrix (angstroms):
                    1          2          3          4          5
     1  N    0.000000
     2  B    1.436848   0.000000
     3  N    3.357401   2.854485   0.000000
     4  B    2.854485   1.812155   1.436848   0.000000
     5  H    4.324525   3.749052   1.007306   2.119881   0.000000
     6  H    2.269864   1.195564   3.881983   2.604994   4.697512
     7  H    2.322234   1.312985   2.390028   1.359292   3.057073
     8  H    1.017580   2.174182   3.095970   3.056889   4.040220
     9  H    1.007309   2.119882   4.324526   3.749053   5.306437
    10  H    3.095970   3.056889   1.017580   2.174182   1.680382
    11  H    2.390028   1.359292   2.322234   1.312985   3.175676
    12  H    3.881983   2.604994   2.269864   1.195564   2.529670
                    6          7          8          9         10
     6  H    0.000000
     7  H    2.002830   0.000000
     8  H    3.196831   2.778968   0.000000
     9  H    2.529671   3.175680   1.680383   0.000000
    10  H    4.214734   2.775984   2.549953   4.040221   0.000000
    11  H    1.992125   1.948590   2.775984   3.057070   2.778968
    12  H    2.958608   1.992125   4.214734   4.697513   3.196831
                   11         12
    11  H    0.000000
    12  H    2.002830   0.000000
 Stoichiometry    B2H8N2
 Framework group  C1[X(B2H8N2)]
 Deg. of freedom    30
 Full point group                 C1      NOp   1
 Largest Abelian subgroup         C1      NOp   1
 Largest concise Abelian subgroup C1      NOp   1
                         Standard orientation:                         
 ---------------------------------------------------------------------
 Center     Atomic      Atomic             Coordinates (Angstroms)
 Number     Number       Type             X           Y           Z
 ---------------------------------------------------------------------
      1          7           0       -1.677867   -0.546456   -0.052885
      2          5           0       -0.905935    0.664864   -0.016045
      3          7           0        1.677867   -0.546456    0.052884
      4          5           0        0.905935    0.664864    0.016045
      5          1           0        2.642742   -0.524296   -0.235547
      6          1           0       -1.478851    1.712894    0.036625
      7          1           0       -0.016896    0.789665   -0.974148
      8          1           0       -1.274704   -1.477396    0.026362
      9          1           0       -2.642742   -0.524296    0.235556
     10          1           0        1.274704   -1.477396   -0.026364
     11          1           0        0.016896    0.789664    0.974148
     12          1           0        1.478851    1.712894   -0.036625
 ---------------------------------------------------------------------
 Rotational constants (GHZ):          15.6394425           4.1839739           3.3938069
 Standard basis: 6-31G(d,p) (6D, 7F)
 There are   100 symmetry adapted cartesian basis functions of A   symmetry.
 There are   100 symmetry adapted basis functions of A   symmetry.
   100 basis functions,   168 primitive gaussians,   100 cartesian basis functions
    16 alpha electrons       16 beta electrons
       nuclear repulsion energy       111.8145972459 Hartrees.
 NAtoms=   12 NActive=   12 NUniq=   12 SFac= 1.00D+00 NAtFMM=   60 NAOKFM=F Big=F
 Integral buffers will be    131072 words long.
 Raffenetti 2 integral format.
 Two-electron integral symmetry is turned on.
 One-electron integrals computed using PRISM.
 NBasis=   100 RedAO= T EigKep=  4.07D-03  NBF=   100
 NBsUse=   100 1.00D-06 EigRej= -1.00D+00 NBFU=   100
 ExpMin= 1.27D-01 ExpMax= 4.17D+03 ExpMxC= 6.27D+02 IAcc=3 IRadAn=         5 AccDes= 0.00D+00
 Harris functional with IExCor=  402 and IRadAn=       5 diagonalized for initial guess.
 HarFok:  IExCor=  402 AccDes= 0.00D+00 IRadAn=         5 IDoV= 1 UseB2=F ITyADJ=14
 ICtDFT=  3500011 ScaDFX=  1.000000  1.000000  1.000000  1.000000
 FoFCou: FMM=F IPFlag=           0 FMFlag=      100000 FMFlg1=           0
         NFxFlg=           0 DoJE=T BraDBF=F KetDBF=T FulRan=T
         wScrn=  0.000000 ICntrl=       500 IOpCl=  0 I1Cent=   200000004 NGrid=           0
         NMat0=    1 NMatS0=      1 NMatT0=    0 NMatD0=    1 NMtDS0=    0 NMtDT0=    0
 Petite list used in FoFCou.
 Initial guess <Sx>= 0.0000 <Sy>= 0.0000 <Sz>= 0.0000 <S**2>=-0.0000 S=-0.0000
 Keep R1 and R2 ints in memory in canonical form, NReq=29209894.
 Requested convergence on RMS density matrix=1.00D-08 within1024 cycles.
 Requested convergence on MAX density matrix=1.00D-06.
 Requested convergence on             energy=1.00D-06.
 No special actions if energy rises.
 Integral accuracy reduced to 1.0D-05 until final iterations.
 Initial convergence to 1.0D-05 achieved.  Increase integral accuracy.
 SCF Done:  E(UB3LYP) =  -164.078610081     A.U. after   12 cycles
            NFock= 12  Conv=0.12D-08     -V/T= 2.0101
 <Sx>= 0.0000 <Sy>= 0.0000 <Sz>= 0.0000 <S**2>=-0.0000 S=-0.0000
 <L.S>= 0.000000000000E+00
 Annihilation of the first spin contaminant:
 S**2 before annihilation    -0.0000,   after     0.0000

 **********************************************************************

            Population analysis using the SCF density.

 **********************************************************************

 Orbital symmetries:
 Alpha Orbitals:
       Occupied  (A) (A) (A) (A) (A) (A) (A) (A) (A) (A) (A) (A)
                 (A) (A) (A) (A)
       Virtual   (A) (A) (A) (A) (A) (A) (A) (A) (A) (A) (A) (A)
                 (A) (A) (A) (A) (A) (A) (A) (A) (A) (A) (A) (A)
                 (A) (A) (A) (A) (A) (A) (A) (A) (A) (A) (A) (A)
                 (A) (A) (A) (A) (A) (A) (A) (A) (A) (A) (A) (A)
                 (A) (A) (A) (A) (A) (A) (A) (A) (A) (A) (A) (A)
                 (A) (A) (A) (A) (A) (A) (A) (A) (A) (A) (A) (A)
                 (A) (A) (A) (A) (A) (A) (A) (A) (A) (A) (A) (A)
 Beta  Orbitals:
       Occupied  (A) (A) (A) (A) (A) (A) (A) (A) (A) (A) (A) (A)
                 (A) (A) (A) (A)
       Virtual   (A) (A) (A) (A) (A) (A) (A) (A) (A) (A) (A) (A)
                 (A) (A) (A) (A) (A) (A) (A) (A) (A) (A) (A) (A)
                 (A) (A) (A) (A) (A) (A) (A) (A) (A) (A) (A) (A)
                 (A) (A) (A) (A) (A) (A) (A) (A) (A) (A) (A) (A)
                 (A) (A) (A) (A) (A) (A) (A) (A) (A) (A) (A) (A)
                 (A) (A) (A) (A) (A) (A) (A) (A) (A) (A) (A) (A)
                 (A) (A) (A) (A) (A) (A) (A) (A) (A) (A) (A) (A)
 The electronic state is 1-A.
 Alpha  occ. eigenvalues --  -14.30588 -14.30588  -6.75333  -6.75312  -0.84544
 Alpha  occ. eigenvalues --   -0.83614  -0.62130  -0.49393  -0.48799  -0.46389
 Alpha  occ. eigenvalues --   -0.43335  -0.40222  -0.34328  -0.33352  -0.26801
 Alpha  occ. eigenvalues --   -0.22305
 Alpha virt. eigenvalues --    0.04942   0.05775   0.10424   0.12009   0.13613
 Alpha virt. eigenvalues --    0.16483   0.18320   0.20685   0.23999   0.28270
 Alpha virt. eigenvalues --    0.29177   0.36465   0.39109   0.43636   0.48297
 Alpha virt. eigenvalues --    0.51805   0.54081   0.61014   0.67047   0.71993
 Alpha virt. eigenvalues --    0.73400   0.74477   0.78752   0.80248   0.82372
 Alpha virt. eigenvalues --    0.85252   0.85525   0.87118   0.90104   0.92822
 Alpha virt. eigenvalues --    0.96205   0.97049   1.09237   1.10469   1.14043
 Alpha virt. eigenvalues --    1.23606   1.32744   1.36286   1.38960   1.45031
 Alpha virt. eigenvalues --    1.46036   1.56687   1.60319   1.61467   1.67950
 Alpha virt. eigenvalues --    1.82240   1.84479   1.86471   1.97103   2.00513
 Alpha virt. eigenvalues --    2.09707   2.16799   2.17549   2.19602   2.22947
 Alpha virt. eigenvalues --    2.26435   2.34508   2.35784   2.37433   2.50334
 Alpha virt. eigenvalues --    2.50808   2.54382   2.58779   2.60932   2.61556
 Alpha virt. eigenvalues --    2.67325   2.69771   2.77036   2.81628   2.83029
 Alpha virt. eigenvalues --    2.94039   2.94939   3.03114   3.07742   3.20559
 Alpha virt. eigenvalues --    3.22685   3.28463   3.34933   3.51120   3.59339
 Alpha virt. eigenvalues --    3.60473   3.80618   4.23702   4.27441
  Beta  occ. eigenvalues --  -14.30588 -14.30588  -6.75333  -6.75312  -0.84544
  Beta  occ. eigenvalues --   -0.83614  -0.62130  -0.49393  -0.48799  -0.46389
  Beta  occ. eigenvalues --   -0.43335  -0.40222  -0.34328  -0.33352  -0.26801
  Beta  occ. eigenvalues --   -0.22305
  Beta virt. eigenvalues --    0.04942   0.05775   0.10424   0.12009   0.13613
  Beta virt. eigenvalues --    0.16483   0.18320   0.20685   0.23999   0.28270
  Beta virt. eigenvalues --    0.29177   0.36465   0.39109   0.43636   0.48297
  Beta virt. eigenvalues --    0.51805   0.54081   0.61014   0.67047   0.71993
  Beta virt. eigenvalues --    0.73400   0.74477   0.78752   0.80248   0.82372
  Beta virt. eigenvalues --    0.85252   0.85525   0.87118   0.90104   0.92822
  Beta virt. eigenvalues --    0.96205   0.97049   1.09237   1.10469   1.14043
  Beta virt. eigenvalues --    1.23606   1.32744   1.36286   1.38960   1.45031
  Beta virt. eigenvalues --    1.46036   1.56687   1.60319   1.61467   1.67950
  Beta virt. eigenvalues --    1.82240   1.84479   1.86471   1.97103   2.00513
  Beta virt. eigenvalues --    2.09707   2.16799   2.17549   2.19602   2.22947
  Beta virt. eigenvalues --    2.26435   2.34508   2.35784   2.37433   2.50334
  Beta virt. eigenvalues --    2.50808   2.54382   2.58779   2.60932   2.61556
  Beta virt. eigenvalues --    2.67325   2.69771   2.77036   2.81628   2.83029
  Beta virt. eigenvalues --    2.94039   2.94939   3.03114   3.07742   3.20559
  Beta virt. eigenvalues --    3.22685   3.28463   3.34933   3.51120   3.59339
  Beta virt. eigenvalues --    3.60473   3.80618   4.23702   4.27441
          Condensed to atoms (all electrons):
               1          2          3          4          5          6
     1  N    6.556244   0.453190  -0.001865  -0.009914   0.000015  -0.026157
     2  B    0.453190   3.503892  -0.009914   0.156954   0.001207   0.403721
     3  N   -0.001865  -0.009914   6.556243   0.453190   0.363169   0.001344
     4  B   -0.009914   0.156954   0.453190   3.503892  -0.030966  -0.023983
     5  H    0.000015   0.001207   0.363169  -0.030966   0.448604  -0.000037
     6  H   -0.026157   0.403721   0.001344  -0.023983  -0.000037   0.724210
     7  H   -0.025736   0.214943  -0.030599   0.167901   0.000136  -0.010065
     8  H    0.353554  -0.040192   0.001522  -0.004561  -0.000062   0.003559
     9  H    0.363168  -0.030966   0.000015   0.001207  -0.000000  -0.003671
    10  H    0.001522  -0.004561   0.353554  -0.040192  -0.030561   0.000029
    11  H   -0.030599   0.167901  -0.025736   0.214943   0.001850  -0.008043
    12  H    0.001344  -0.023983  -0.026157   0.403721  -0.003671  -0.000646
               7          8          9         10         11         12
     1  N   -0.025736   0.353554   0.363168   0.001522  -0.030599   0.001344
     2  B    0.214943  -0.040192  -0.030966  -0.004561   0.167901  -0.023983
     3  N   -0.030599   0.001522   0.000015   0.353554  -0.025736  -0.026157
     4  B    0.167901  -0.004561   0.001207  -0.040192   0.214943   0.403721
     5  H    0.000136  -0.000062  -0.000000  -0.030561   0.001850  -0.003671
     6  H   -0.010065   0.003559  -0.003671   0.000029  -0.008043  -0.000646
     7  H    0.784096  -0.000185   0.001850  -0.001131  -0.094823  -0.008043
     8  H   -0.000185   0.480873  -0.030561   0.001905  -0.001131   0.000029
     9  H    0.001850  -0.030561   0.448604  -0.000062   0.000136  -0.000037
    10  H   -0.001131   0.001905  -0.000062   0.480873  -0.000185   0.003559
    11  H   -0.094823  -0.001131   0.000136  -0.000185   0.784096  -0.010065
    12  H   -0.008043   0.000029  -0.000037   0.003559  -0.010065   0.724210
          Atomic-Atomic Spin Densities.
               1          2          3          4          5          6
     1  N    0.000000  -0.000000   0.000000   0.000000   0.000000  -0.000000
     2  B   -0.000000   0.000000  -0.000000   0.000000  -0.000000   0.000000
     3  N    0.000000  -0.000000  -0.000000   0.000000  -0.000000  -0.000000
     4  B    0.000000   0.000000   0.000000   0.000000  -0.000000   0.000000
     5  H    0.000000  -0.000000  -0.000000  -0.000000   0.000000  -0.000000
     6  H   -0.000000   0.000000  -0.000000   0.000000  -0.000000  -0.000000
     7  H   -0.000000   0.000000   0.000000  -0.000000  -0.000000   0.000000
     8  H   -0.000000   0.000000   0.000000  -0.000000   0.000000  -0.000000
     9  H   -0.000000  -0.000000   0.000000  -0.000000  -0.000000  -0.000000
    10  H   -0.000000   0.000000  -0.000000  -0.000000  -0.000000   0.000000
    11  H   -0.000000   0.000000   0.000000  -0.000000   0.000000  -0.000000
    12  H   -0.000000  -0.000000   0.000000  -0.000000  -0.000000   0.000000
               7          8          9         10         11         12
     1  N   -0.000000  -0.000000  -0.000000  -0.000000  -0.000000  -0.000000
     2  B    0.000000   0.000000  -0.000000   0.000000   0.000000  -0.000000
     3  N    0.000000   0.000000   0.000000  -0.000000   0.000000   0.000000
     4  B   -0.000000  -0.000000  -0.000000  -0.000000  -0.000000  -0.000000
     5  H   -0.000000   0.000000  -0.000000  -0.000000   0.000000  -0.000000
     6  H    0.000000  -0.000000  -0.000000   0.000000  -0.000000   0.000000
     7  H   -0.000000   0.000000   0.000000  -0.000000   0.000000  -0.000000
     8  H    0.000000  -0.000000  -0.000000  -0.000000  -0.000000   0.000000
     9  H    0.000000  -0.000000   0.000000   0.000000   0.000000  -0.000000
    10  H   -0.000000  -0.000000   0.000000   0.000000  -0.000000  -0.000000
    11  H    0.000000  -0.000000   0.000000  -0.000000  -0.000000  -0.000000
    12  H   -0.000000   0.000000  -0.000000  -0.000000  -0.000000  -0.000000
 Mulliken charges and spin densities:
               1          2
     1  N   -0.634768   0.000000
     2  B    0.207807   0.000000
     3  N   -0.634768  -0.000000
     4  B    0.207807   0.000000
     5  H    0.250317   0.000000
     6  H   -0.060260   0.000000
     7  H    0.001656  -0.000000
     8  H    0.235248  -0.000000
     9  H    0.250317   0.000000
    10  H    0.235248   0.000000
    11  H    0.001656  -0.000000
    12  H   -0.060260  -0.000000
 Sum of Mulliken charges =  -0.00000   0.00000
 Mulliken charges and spin densities with hydrogens summed into heavy atoms:
               1          2
     1  N   -0.149203   0.000000
     2  B    0.149203  -0.000000
     3  N   -0.149203  -0.000000
     4  B    0.149203   0.000000
 Electronic spatial extent (au):  <R**2>=            386.3229
 Charge=             -0.0000 electrons
 Dipole moment (field-independent basis, Debye):
    X=              0.0000    Y=             -2.1133    Z=              0.0000  Tot=              2.1133
 Quadrupole moment (field-independent basis, Debye-Ang):
   XX=            -23.4872   YY=            -25.7046   ZZ=            -29.0156
   XY=             -0.0000   XZ=             -3.0677   YZ=             -0.0000
 Traceless Quadrupole moment (field-independent basis, Debye-Ang):
   XX=              2.5819   YY=              0.3645   ZZ=             -2.9464
   XY=             -0.0000   XZ=             -3.0677   YZ=             -0.0000
 Octapole moment (field-independent basis, Debye-Ang**2):
  XXX=              0.0001  YYY=            -20.9164  ZZZ=              0.0000  XYY=              0.0000
  XXY=            -10.2494  XXZ=              0.0001  XZZ=             -0.0000  YZZ=             -1.8276
  YYZ=             -0.0000  XYZ=              2.0060
 Hexadecapole moment (field-independent basis, Debye-Ang**3):
 XXXX=           -270.8617 YYYY=           -129.2303 ZZZZ=            -39.6684 XXXY=             -0.0001
 XXXZ=            -20.5176 YYYX=             -0.0000 YYYZ=             -0.0000 ZZZX=             -2.5513
 ZZZY=             -0.0000 XXYY=            -78.6442 XXZZ=            -71.2384 YYZZ=            -30.2182
 XXYZ=             -0.0001 YYXZ=             -1.7390 ZZXY=              0.0000
 N-N= 1.118145972459D+02 E-N=-6.039236403132D+02  KE= 1.624413889278D+02
                          Isotropic Fermi Contact Couplings
        Atom                 a.u.       MegaHertz       Gauss      10(-4) cm-1
     1  N(14)              0.00000       0.00000       0.00000       0.00000
     2  B(11)              0.00000       0.00000       0.00000       0.00000
     3  N(14)              0.00000       0.00000       0.00000       0.00000
     4  B(11)              0.00000       0.00000       0.00000       0.00000
     5  H(1)               0.00000       0.00000       0.00000       0.00000
     6  H(1)               0.00000       0.00000       0.00000       0.00000
     7  H(1)              -0.00000      -0.00000      -0.00000      -0.00000
     8  H(1)               0.00000       0.00000       0.00000       0.00000
     9  H(1)               0.00000       0.00000       0.00000       0.00000
    10  H(1)               0.00000       0.00000       0.00000       0.00000
    11  H(1)              -0.00000      -0.00000      -0.00000      -0.00000
    12  H(1)               0.00000       0.00000       0.00000       0.00000
 --------------------------------------------------------
       Center         ----  Spin Dipole Couplings  ----
                      3XX-RR        3YY-RR        3ZZ-RR
 --------------------------------------------------------
     1   Atom        0.000000      0.000000      0.000000
     2   Atom        0.000000      0.000000      0.000000
     3   Atom        0.000000      0.000000      0.000000
     4   Atom        0.000000      0.000000      0.000000
     5   Atom        0.000000      0.000000      0.000000
     6   Atom        0.000000      0.000000      0.000000
     7   Atom        0.000000      0.000000      0.000000
     8   Atom        0.000000      0.000000      0.000000
     9   Atom        0.000000      0.000000      0.000000
    10   Atom        0.000000      0.000000      0.000000
    11   Atom        0.000000      0.000000      0.000000
    12   Atom        0.000000      0.000000      0.000000
 --------------------------------------------------------
                        XY            XZ            YZ
 --------------------------------------------------------
     1   Atom        0.000000      0.000000      0.000000
     2   Atom        0.000000      0.000000      0.000000
     3   Atom        0.000000      0.000000      0.000000
     4   Atom        0.000000      0.000000      0.000000
     5   Atom        0.000000      0.000000      0.000000
     6   Atom        0.000000      0.000000      0.000000
     7   Atom        0.000000      0.000000      0.000000
     8   Atom        0.000000      0.000000      0.000000
     9   Atom        0.000000      0.000000      0.000000
    10   Atom        0.000000      0.000000      0.000000
    11   Atom        0.000000      0.000000      0.000000
    12   Atom        0.000000      0.000000      0.000000
 --------------------------------------------------------


 ---------------------------------------------------------------------------------
              Anisotropic Spin Dipole Couplings in Principal Axis System
 ---------------------------------------------------------------------------------

       Atom             a.u.   MegaHertz   Gauss  10(-4) cm-1        Axes

              Baa     0.0000     0.000     0.000     0.000  1.0000  0.0000  0.0000
     1 N(14)  Bbb     0.0000     0.000     0.000     0.000 -0.0000  1.0000  0.0000
              Bcc     0.0000     0.000     0.000     0.000  0.0000  0.0000  1.0000
 
              Baa     0.0000     0.000     0.000     0.000  1.0000  0.0000  0.0000
     2 B(11)  Bbb     0.0000     0.000     0.000     0.000 -0.0000  1.0000  0.0000
              Bcc     0.0000     0.000     0.000     0.000  0.0000  0.0000  1.0000
 
              Baa     0.0000     0.000     0.000     0.000  1.0000  0.0000  0.0000
     3 N(14)  Bbb     0.0000     0.000     0.000     0.000 -0.0000  1.0000  0.0000
              Bcc     0.0000     0.000     0.000     0.000  0.0000  0.0000  1.0000
 
              Baa     0.0000     0.000     0.000     0.000  1.0000  0.0000  0.0000
     4 B(11)  Bbb     0.0000     0.000     0.000     0.000 -0.0000  1.0000  0.0000
              Bcc     0.0000     0.000     0.000     0.000  0.0000  0.0000  1.0000
 
              Baa     0.0000     0.000     0.000     0.000  1.0000  0.0000  0.0000
     5 H(1)   Bbb     0.0000     0.000     0.000     0.000 -0.0000  1.0000  0.0000
              Bcc     0.0000     0.000     0.000     0.000  0.0000  0.0000  1.0000
 
              Baa     0.0000     0.000     0.000     0.000  1.0000  0.0000  0.0000
     6 H(1)   Bbb     0.0000     0.000     0.000     0.000 -0.0000  1.0000  0.0000
              Bcc     0.0000     0.000     0.000     0.000  0.0000  0.0000  1.0000
 
              Baa     0.0000     0.000     0.000     0.000  1.0000  0.0000  0.0000
     7 H(1)   Bbb     0.0000     0.000     0.000     0.000 -0.0000  1.0000  0.0000
              Bcc     0.0000     0.000     0.000     0.000  0.0000  0.0000  1.0000
 
              Baa     0.0000     0.000     0.000     0.000  1.0000  0.0000  0.0000
     8 H(1)   Bbb     0.0000     0.000     0.000     0.000 -0.0000  1.0000  0.0000
              Bcc     0.0000     0.000     0.000     0.000  0.0000  0.0000  1.0000
 
              Baa     0.0000     0.000     0.000     0.000  1.0000  0.0000  0.0000
     9 H(1)   Bbb     0.0000     0.000     0.000     0.000 -0.0000  1.0000  0.0000
              Bcc     0.0000     0.000     0.000     0.000  0.0000  0.0000  1.0000
 
              Baa     0.0000     0.000     0.000     0.000  1.0000  0.0000  0.0000
    10 H(1)   Bbb     0.0000     0.000     0.000     0.000 -0.0000  1.0000  0.0000
              Bcc     0.0000     0.000     0.000     0.000  0.0000  0.0000  1.0000
 
              Baa     0.0000     0.000     0.000     0.000  1.0000  0.0000  0.0000
    11 H(1)   Bbb     0.0000     0.000     0.000     0.000 -0.0000  1.0000  0.0000
              Bcc     0.0000     0.000     0.000     0.000  0.0000  0.0000  1.0000
 
              Baa     0.0000     0.000     0.000     0.000  1.0000  0.0000  0.0000
    12 H(1)   Bbb     0.0000     0.000     0.000     0.000 -0.0000  1.0000  0.0000
              Bcc     0.0000     0.000     0.000     0.000  0.0000  0.0000  1.0000
 

 ---------------------------------------------------------------------------------

 Calling FoFJK, ICntrl=      2127 FMM=F ISym2X=0 I1Cent= 0 IOpClX= 1 NMat=1 NMatS=1 NMatT=0.
 ***** Axes restored to original set *****
 -------------------------------------------------------------------
 Center     Atomic                   Forces (Hartrees/Bohr)
 Number     Number              X              Y              Z
 -------------------------------------------------------------------
      1        7           0.003175824   -0.008106573    0.000725060
      2        5          -0.001757581    0.001207389    0.000021462
      3        7          -0.003178433   -0.008106537   -0.000724391
      4        5           0.001757730    0.001207300   -0.000021366
      5        1          -0.000276071    0.000181423    0.000182497
      6        1           0.000712814   -0.000858950   -0.000014298
      7        1          -0.000032100    0.000007641   -0.000471449
      8        1          -0.003213474    0.007569067   -0.000490372
      9        1           0.000278467    0.000181394   -0.000183286
     10        1           0.003213577    0.007569099    0.000490412
     11        1           0.000032051    0.000007698    0.000471424
     12        1          -0.000712804   -0.000858952    0.000014308
 -------------------------------------------------------------------
 Cartesian Forces:  Max     0.008106573 RMS     0.002890156

 GradGradGradGradGradGradGradGradGradGradGradGradGradGradGradGradGradGrad
 Berny optimization.
 FormGI is forming the generalized inverse of G from B-inverse, IUseBI=4.
 Internal  Forces:  Max     0.008236115 RMS     0.001593061
 Search for a local minimum.
 Step number   1 out of a maximum of   65
 All quantities printed in internal units (Hartrees-Bohrs-Radians)
 Mixed Optimization -- RFO/linear search
 Second derivative matrix not updated -- first step.
 ITU=  0
     Eigenvalues ---    0.01734   0.01734   0.02051   0.02051   0.03059
     Eigenvalues ---    0.03503   0.03551   0.09045   0.11835   0.13997
     Eigenvalues ---    0.14326   0.15456   0.15995   0.15995   0.16000
     Eigenvalues ---    0.16000   0.16000   0.16000   0.16385   0.16662
     Eigenvalues ---    0.18570   0.21298   0.24992   0.24992   0.40021
     Eigenvalues ---    0.40021   0.44726   0.44726   0.46426   0.46426
 RFO step:  Lambda=-3.24589310D-04 EMin= 1.73365308D-02
 Linear search not attempted -- first point.
 Iteration  1 RMS(Cart)=  0.00378423 RMS(Int)=  0.00002158
 Iteration  2 RMS(Cart)=  0.00001601 RMS(Int)=  0.00000081
 Iteration  3 RMS(Cart)=  0.00000000 RMS(Int)=  0.00000081
 Variable       Old X    -DE/DX   Delta X   Delta X   Delta X     New X
                                 (Linear)    (Quad)   (Total)
    R1        2.71525   0.00017   0.00000   0.00042   0.00042   2.71567
    R2        1.92295  -0.00824   0.00000  -0.01840  -0.01840   1.90455
    R3        1.90354  -0.00032   0.00000  -0.00068  -0.00068   1.90286
    R4        3.42448   0.00035   0.00000   0.00284   0.00284   3.42732
    R5        2.25929  -0.00110   0.00000  -0.00438  -0.00438   2.25491
    R6        2.48118   0.00034   0.00000   0.00176   0.00176   2.48294
    R7        2.56869   0.00031   0.00000   0.00195   0.00195   2.57064
    R8        2.71525   0.00017   0.00000   0.00042   0.00042   2.71567
    R9        1.90353  -0.00031   0.00000  -0.00067  -0.00067   1.90286
   R10        1.92295  -0.00824   0.00000  -0.01840  -0.01840   1.90455
   R11        2.56869   0.00031   0.00000   0.00195   0.00195   2.57064
   R12        2.48118   0.00034   0.00000   0.00176   0.00176   2.48294
   R13        2.25929  -0.00110   0.00000  -0.00438  -0.00438   2.25491
    A1        2.16086  -0.00000   0.00000  -0.00014  -0.00014   2.16071
    A2        2.08142  -0.00018   0.00000  -0.00123  -0.00123   2.08018
    A3        1.95771   0.00015   0.00000   0.00079   0.00079   1.95850
    A4        2.13840  -0.00030   0.00000  -0.00145  -0.00145   2.13695
    A5        2.07452   0.00032   0.00000   0.00197   0.00197   2.07649
    A6        2.00997  -0.00006   0.00000   0.00053   0.00053   2.01051
    A7        2.04971  -0.00016   0.00000  -0.00212  -0.00212   2.04759
    A8        2.06957  -0.00003   0.00000  -0.00057  -0.00057   2.06899
    A9        1.84762  -0.00010   0.00000  -0.00067  -0.00067   1.84695
   A10        1.78519  -0.00009   0.00000  -0.00004  -0.00004   1.78515
   A11        1.63398   0.00002   0.00000  -0.00017  -0.00017   1.63381
   A12        2.08142  -0.00018   0.00000  -0.00123  -0.00123   2.08019
   A13        2.16086  -0.00000   0.00000  -0.00014  -0.00014   2.16071
   A14        1.95771   0.00015   0.00000   0.00079   0.00079   1.95850
   A15        2.13840  -0.00030   0.00000  -0.00145  -0.00145   2.13695
   A16        2.06957  -0.00003   0.00000  -0.00057  -0.00057   2.06899
   A17        2.04971  -0.00016   0.00000  -0.00212  -0.00212   2.04759
   A18        2.00997  -0.00006   0.00000   0.00053   0.00053   2.01051
   A19        2.07452   0.00032   0.00000   0.00197   0.00197   2.07649
   A20        1.63398   0.00002   0.00000  -0.00017  -0.00017   1.63381
   A21        1.78519  -0.00009   0.00000  -0.00004  -0.00004   1.78515
   A22        1.84762  -0.00010   0.00000  -0.00067  -0.00067   1.84695
    D1        0.10651   0.00005   0.00000   0.00313   0.00313   0.10964
    D2       -2.99424   0.00010   0.00000   0.00463   0.00463  -2.98961
    D3        1.07002   0.00000   0.00000   0.00311   0.00311   1.07313
    D4       -0.82918   0.00012   0.00000   0.00439   0.00439  -0.82479
    D5        2.78716   0.00002   0.00000   0.00178   0.00178   2.78894
    D6       -0.31359   0.00008   0.00000   0.00328   0.00328  -0.31030
    D7       -2.53251  -0.00003   0.00000   0.00176   0.00176  -2.53075
    D8        1.85147   0.00010   0.00000   0.00304   0.00304   1.85451
    D9       -0.03824   0.00013   0.00000   0.00385   0.00384  -0.03440
   D10        3.06261   0.00008   0.00000   0.00240   0.00240   3.06502
   D11        3.06261   0.00008   0.00000   0.00241   0.00241   3.06502
   D12       -0.11971   0.00003   0.00000   0.00096   0.00097  -0.11875
   D13        2.78717   0.00002   0.00000   0.00178   0.00178   2.78895
   D14        1.85148   0.00010   0.00000   0.00304   0.00304   1.85452
   D15       -2.53250  -0.00003   0.00000   0.00176   0.00176  -2.53075
   D16       -0.31358   0.00008   0.00000   0.00328   0.00328  -0.31029
   D17        0.10651   0.00005   0.00000   0.00313   0.00313   0.10964
   D18       -0.82918   0.00012   0.00000   0.00439   0.00438  -0.82479
   D19        1.07002   0.00000   0.00000   0.00311   0.00311   1.07313
   D20       -2.99424   0.00010   0.00000   0.00463   0.00463  -2.98961
         Item               Value     Threshold  Converged?
 Maximum Force            0.008236     0.000450     NO 
 RMS     Force            0.001593     0.000300     NO 
 Maximum Displacement     0.014421     0.001800     NO 
 RMS     Displacement     0.003782     0.001200     NO 
 Predicted change in Energy=-1.624513D-04
 GradGradGradGradGradGradGradGradGradGradGradGradGradGradGradGradGradGrad

                          Input orientation:                          
 ---------------------------------------------------------------------
 Center     Atomic      Atomic             Coordinates (Angstroms)
 Number     Number       Type             X           Y           Z
 ---------------------------------------------------------------------
      1          7           0       -1.677062   -0.547993   -0.049308
      2          5           0       -0.906700    0.664676   -0.015379
      3          7           0        1.677061   -0.547993    0.049309
      4          5           0        0.906699    0.664676    0.015380
      5          1           0        2.641752   -0.525112   -0.238436
      6          1           0       -1.477858    1.711032    0.037141
      7          1           0       -0.017685    0.789564   -0.974770
      8          1           0       -1.276545   -1.469139    0.033304
      9          1           0       -2.641750   -0.525112    0.238444
     10          1           0        1.276545   -1.469139   -0.033303
     11          1           0        0.017685    0.789565    0.974771
     12          1           0        1.477857    1.711032   -0.037141
 ---------------------------------------------------------------------
                    Distance matrix (angstroms):
                    1          2          3          4          5
     1  N    0.000000
     2  B    1.437072   0.000000
     3  N    3.355572   2.854920   0.000000
     4  B    2.854920   1.813660   1.437072   0.000000
     5  H    4.323013   3.749247   1.006950   2.119062   0.000000
     6  H    2.269439   1.193248   3.880316   2.604121   4.695473
     7  H    2.323589   1.313916   2.389553   1.360324   3.056659
     8  H    1.007843   2.166177   3.093954   3.052875   4.039564
     9  H    1.006950   2.119061   4.323011   3.749246   5.304979
    10  H    3.093955   3.052875   1.007843   2.166177   1.672440
    11  H    2.389553   1.360324   2.323590   1.313916   3.175842
    12  H    3.880317   2.604121   2.269438   1.193248   2.528934
                    6          7          8          9         10
     6  H    0.000000
     7  H    2.001292   0.000000
     8  H    3.186539   2.775370   0.000000
     9  H    2.528934   3.175842   1.672440   0.000000
    10  H    4.207753   2.768237   2.553959   4.039563   0.000000
    11  H    1.991206   1.949862   2.768237   3.056656   2.775371
    12  H    2.956648   1.991206   4.207753   4.695471   3.186539
                   11         12
    11  H    0.000000
    12  H    2.001292   0.000000
 Stoichiometry    B2H8N2
 Framework group  C1[X(B2H8N2)]
 Deg. of freedom    30
 Full point group                 C1      NOp   1
 Largest Abelian subgroup         C1      NOp   1
 Largest concise Abelian subgroup C1      NOp   1
                         Standard orientation:                         
 ---------------------------------------------------------------------
 Center     Atomic      Atomic             Coordinates (Angstroms)
 Number     Number       Type             X           Y           Z
 ---------------------------------------------------------------------
      1          7           0       -1.676968   -0.547604   -0.052381
      2          5           0       -0.906670    0.665065   -0.017040
      3          7           0        1.676968   -0.547604    0.052380
      4          5           0        0.906670    0.665065    0.017040
      5          1           0        2.642184   -0.524723   -0.233597
      6          1           0       -1.477923    1.711421    0.034433
      7          1           0       -0.015900    0.789953   -0.974801
      8          1           0       -1.276604   -1.468750    0.030964
      9          1           0       -2.642182   -0.524723    0.233604
     10          1           0        1.276604   -1.468750   -0.030965
     11          1           0        0.015899    0.789954    0.974801
     12          1           0        1.477923    1.711421   -0.034434
 ---------------------------------------------------------------------
 Rotational constants (GHZ):          15.6482813           4.1859414           3.3955270
 Standard basis: 6-31G(d,p) (6D, 7F)
 There are   100 symmetry adapted cartesian basis functions of A   symmetry.
 There are   100 symmetry adapted basis functions of A   symmetry.
   100 basis functions,   168 primitive gaussians,   100 cartesian basis functions
    16 alpha electrons       16 beta electrons
       nuclear repulsion energy       111.9043044294 Hartrees.
 NAtoms=   12 NActive=   12 NUniq=   12 SFac= 1.00D+00 NAtFMM=   60 NAOKFM=F Big=F
 Integral buffers will be    131072 words long.
 Raffenetti 2 integral format.
 Two-electron integral symmetry is turned on.
 One-electron integrals computed using PRISM.
 NBasis=   100 RedAO= T EigKep=  4.07D-03  NBF=   100
 NBsUse=   100 1.00D-06 EigRej= -1.00D+00 NBFU=   100
 Initial guess from the checkpoint file:  "/scratch/1311840/Gau-8904.chk"
 B after Tr=     0.000000    0.000000   -0.000000
         Rot=    1.000000    0.000000    0.000032   -0.000000 Ang=   0.00 deg.
 Initial guess <Sx>= 0.0000 <Sy>= 0.0000 <Sz>= 0.0000 <S**2>=-0.0000 S=-0.0000
 Keep R1 and R2 ints in memory in canonical form, NReq=29209894.
 Requested convergence on RMS density matrix=1.00D-08 within1024 cycles.
 Requested convergence on MAX density matrix=1.00D-06.
 Requested convergence on             energy=1.00D-06.
 No special actions if energy rises.
 SCF Done:  E(UB3LYP) =  -164.078773577     A.U. after    8 cycles
            NFock=  8  Conv=0.55D-08     -V/T= 2.0099
 <Sx>= 0.0000 <Sy>= 0.0000 <Sz>= 0.0000 <S**2>=-0.0000 S=-0.0000
 <L.S>= 0.000000000000E+00
 Annihilation of the first spin contaminant:
 S**2 before annihilation    -0.0000,   after     0.0000
 Calling FoFJK, ICntrl=      2127 FMM=F ISym2X=0 I1Cent= 0 IOpClX= 1 NMat=1 NMatS=1 NMatT=0.
 ***** Axes restored to original set *****
 -------------------------------------------------------------------
 Center     Atomic                   Forces (Hartrees/Bohr)
 Number     Number              X              Y              Z
 -------------------------------------------------------------------
      1        7           0.000174540   -0.000372519    0.000114402
      2        5          -0.000881237    0.000298166    0.000059502
      3        7          -0.000174564   -0.000372451   -0.000114371
      4        5           0.000881336    0.000298171   -0.000059519
      5        1           0.000047037    0.000295816    0.000151936
      6        1           0.000147030    0.000019143    0.000012896
      7        1          -0.000046950   -0.000031590   -0.000181414
      8        1           0.000170513   -0.000209049    0.000067960
      9        1          -0.000047137    0.000295843   -0.000151973
     10        1          -0.000170444   -0.000209094   -0.000067955
     11        1           0.000046909   -0.000031578    0.000181407
     12        1          -0.000147032    0.000019144   -0.000012869
 -------------------------------------------------------------------
 Cartesian Forces:  Max     0.000881336 RMS     0.000268730

 GradGradGradGradGradGradGradGradGradGradGradGradGradGradGradGradGradGrad
 Berny optimization.
 Using GEDIIS/GDIIS optimizer.
 FormGI is forming the generalized inverse of G from B-inverse, IUseBI=4.
 Internal  Forces:  Max     0.000286047 RMS     0.000131322
 Search for a local minimum.
 Step number   2 out of a maximum of   65
 All quantities printed in internal units (Hartrees-Bohrs-Radians)
 Mixed Optimization -- En-DIIS/RFO-DIIS
 Update second derivatives using D2CorX and points    1    2
 DE= -1.63D-04 DEPred=-1.62D-04 R= 1.01D+00
 TightC=F SS=  1.41D+00  RLast= 3.11D-02 DXNew= 5.0454D-01 9.3254D-02
 Trust test= 1.01D+00 RLast= 3.11D-02 DXMaxT set to 3.00D-01
 ITU=  1  0
 Use linear search instead of GDIIS.
     Eigenvalues ---    0.01705   0.01734   0.02054   0.02056   0.03053
     Eigenvalues ---    0.03502   0.03543   0.09009   0.11842   0.14010
     Eigenvalues ---    0.14302   0.15450   0.15737   0.15994   0.16000
     Eigenvalues ---    0.16000   0.16000   0.16004   0.16387   0.16580
     Eigenvalues ---    0.18571   0.21100   0.24947   0.24992   0.39989
     Eigenvalues ---    0.40021   0.44726   0.46421   0.46426   0.47693
 RFO step:  Lambda=-8.04384743D-06 EMin= 1.70530515D-02
 Quartic linear search produced a step of -0.00280.
 Iteration  1 RMS(Cart)=  0.00178875 RMS(Int)=  0.00000368
 Iteration  2 RMS(Cart)=  0.00000346 RMS(Int)=  0.00000038
 Iteration  3 RMS(Cart)=  0.00000000 RMS(Int)=  0.00000038
 Variable       Old X    -DE/DX   Delta X   Delta X   Delta X     New X
                                 (Linear)    (Quad)   (Total)
    R1        2.71567   0.00008  -0.00000   0.00021   0.00021   2.71588
    R2        1.90455   0.00026   0.00005   0.00008   0.00014   1.90468
    R3        1.90286   0.00001   0.00000  -0.00000   0.00000   1.90286
    R4        3.42732   0.00018  -0.00001   0.00179   0.00178   3.42910
    R5        2.25491  -0.00005   0.00001  -0.00033  -0.00032   2.25459
    R6        2.48294   0.00016  -0.00000   0.00083   0.00082   2.48376
    R7        2.57064   0.00014  -0.00001   0.00085   0.00084   2.57148
    R8        2.71567   0.00008  -0.00000   0.00021   0.00021   2.71588
    R9        1.90286   0.00001   0.00000  -0.00000   0.00000   1.90286
   R10        1.90455   0.00026   0.00005   0.00008   0.00014   1.90468
   R11        2.57064   0.00014  -0.00001   0.00085   0.00084   2.57148
   R12        2.48294   0.00016  -0.00000   0.00083   0.00082   2.48376
   R13        2.25491  -0.00005   0.00001  -0.00033  -0.00032   2.25459
    A1        2.16071   0.00006   0.00000   0.00052   0.00052   2.16123
    A2        2.08018  -0.00029   0.00000  -0.00164  -0.00164   2.07855
    A3        1.95850   0.00022  -0.00000   0.00160   0.00160   1.96010
    A4        2.13695  -0.00026   0.00000  -0.00133  -0.00132   2.13562
    A5        2.07649   0.00024  -0.00001   0.00157   0.00156   2.07805
    A6        2.01051  -0.00005  -0.00000   0.00010   0.00010   2.01060
    A7        2.04759  -0.00011   0.00001  -0.00142  -0.00141   2.04618
    A8        2.06899   0.00002   0.00000  -0.00026  -0.00026   2.06874
    A9        1.84695  -0.00007   0.00000  -0.00053  -0.00053   1.84642
   A10        1.78515  -0.00005   0.00000   0.00023   0.00023   1.78539
   A11        1.63381  -0.00001   0.00000  -0.00036  -0.00036   1.63345
   A12        2.08019  -0.00029   0.00000  -0.00164  -0.00164   2.07855
   A13        2.16071   0.00006   0.00000   0.00052   0.00052   2.16123
   A14        1.95850   0.00022  -0.00000   0.00160   0.00160   1.96010
   A15        2.13695  -0.00026   0.00000  -0.00133  -0.00132   2.13562
   A16        2.06899   0.00002   0.00000  -0.00026  -0.00026   2.06874
   A17        2.04759  -0.00011   0.00001  -0.00142  -0.00141   2.04618
   A18        2.01051  -0.00005  -0.00000   0.00010   0.00010   2.01060
   A19        2.07649   0.00024  -0.00001   0.00157   0.00156   2.07805
   A20        1.63381  -0.00001   0.00000  -0.00036  -0.00036   1.63345
   A21        1.78515  -0.00005   0.00000   0.00023   0.00023   1.78539
   A22        1.84695  -0.00007   0.00000  -0.00053  -0.00053   1.84642
    D1        0.10964   0.00003  -0.00001   0.00201   0.00200   0.11164
    D2       -2.98961   0.00005  -0.00001   0.00254   0.00253  -2.98708
    D3        1.07313  -0.00003  -0.00001   0.00166   0.00165   1.07477
    D4       -0.82479   0.00010  -0.00001   0.00301   0.00300  -0.82179
    D5        2.78894   0.00006  -0.00000   0.00363   0.00363   2.79257
    D6       -0.31030   0.00008  -0.00001   0.00417   0.00416  -0.30614
    D7       -2.53075   0.00000  -0.00000   0.00328   0.00328  -2.52748
    D8        1.85451   0.00013  -0.00001   0.00464   0.00463   1.85914
    D9       -0.03440   0.00007  -0.00001   0.00214   0.00213  -0.03227
   D10        3.06502   0.00005  -0.00001   0.00165   0.00165   3.06667
   D11        3.06502   0.00005  -0.00001   0.00165   0.00165   3.06667
   D12       -0.11875   0.00003  -0.00000   0.00116   0.00116  -0.11759
   D13        2.78895   0.00006  -0.00000   0.00363   0.00363   2.79258
   D14        1.85452   0.00013  -0.00001   0.00464   0.00463   1.85915
   D15       -2.53075   0.00000  -0.00000   0.00328   0.00328  -2.52747
   D16       -0.31029   0.00008  -0.00001   0.00417   0.00416  -0.30613
   D17        0.10964   0.00003  -0.00001   0.00200   0.00200   0.11163
   D18       -0.82479   0.00010  -0.00001   0.00301   0.00300  -0.82179
   D19        1.07313  -0.00003  -0.00001   0.00165   0.00165   1.07477
   D20       -2.98961   0.00005  -0.00001   0.00254   0.00253  -2.98708
         Item               Value     Threshold  Converged?
 Maximum Force            0.000286     0.000450     YES
 RMS     Force            0.000131     0.000300     YES
 Maximum Displacement     0.007030     0.001800     NO 
 RMS     Displacement     0.001789     0.001200     NO 
 Predicted change in Energy=-4.017090D-06
 GradGradGradGradGradGradGradGradGradGradGradGradGradGradGradGradGradGrad

                          Input orientation:                          
 ---------------------------------------------------------------------
 Center     Atomic      Atomic             Coordinates (Angstroms)
 Number     Number       Type             X           Y           Z
 ---------------------------------------------------------------------
      1          7           0       -1.676002   -0.548865   -0.048287
      2          5           0       -0.907169    0.664938   -0.015534
      3          7           0        1.676002   -0.548865    0.048288
      4          5           0        0.907168    0.664938    0.015535
      5          1           0        2.641522   -0.524677   -0.236557
      6          1           0       -1.477974    1.711329    0.036291
      7          1           0       -0.017526    0.789909   -0.974928
      8          1           0       -1.274934   -1.469604    0.037024
      9          1           0       -2.641520   -0.524677    0.236564
     10          1           0        1.274934   -1.469604   -0.037022
     11          1           0        0.017526    0.789910    0.974929
     12          1           0        1.477974    1.711328   -0.036291
 ---------------------------------------------------------------------
                    Distance matrix (angstroms):
                    1          2          3          4          5
     1  N    0.000000
     2  B    1.437184   0.000000
     3  N    3.353395   2.854849   0.000000
     4  B    2.854849   1.814603   1.437184   0.000000
     5  H    4.321695   3.749298   1.006951   2.118187   0.000000
     6  H    2.270429   1.193079   3.880230   2.604662   4.695147
     7  H    2.324118   1.314351   2.389001   1.360770   3.056773
     8  H    1.007915   2.166629   3.091263   3.052589   4.038113
     9  H    1.006951   2.118186   4.321693   3.749297   5.304185
    10  H    3.091264   3.052590   1.007915   2.166630   1.673399
    11  H    2.389001   1.360770   2.324118   1.314351   3.175089
    12  H    3.880230   2.604662   2.270428   1.193079   2.528571
                    6          7          8          9         10
     6  H    0.000000
     7  H    2.001121   0.000000
     8  H    3.187406   2.776782   0.000000
     9  H    2.528571   3.175090   1.673398   0.000000
    10  H    4.207399   2.766861   2.550943   4.038112   0.000000
    11  H    1.991625   1.950172   2.766861   3.056770   2.776783
    12  H    2.956838   1.991626   4.207398   4.695146   3.187406
                   11         12
    11  H    0.000000
    12  H    2.001121   0.000000
 Stoichiometry    B2H8N2
 Framework group  C1[X(B2H8N2)]
 Deg. of freedom    30
 Full point group                 C1      NOp   1
 Largest Abelian subgroup         C1      NOp   1
 Largest concise Abelian subgroup C1      NOp   1
                         Standard orientation:                         
 ---------------------------------------------------------------------
 Center     Atomic      Atomic             Coordinates (Angstroms)
 Number     Number       Type             X           Y           Z
 ---------------------------------------------------------------------
      1          7           0       -1.675895   -0.548215   -0.051869
      2          5           0       -0.907133    0.665589   -0.017473
      3          7           0        1.675895   -0.548215    0.051868
      4          5           0        0.907133    0.665589    0.017473
      5          1           0        2.642021   -0.524026   -0.230914
      6          1           0       -1.478048    1.711979    0.033133
      7          1           0       -0.015443    0.790560   -0.974964
      8          1           0       -1.275010   -1.468953    0.034299
      9          1           0       -2.642019   -0.524026    0.230919
     10          1           0        1.275010   -1.468953   -0.034299
     11          1           0        0.015443    0.790560    0.974964
     12          1           0        1.478048    1.711979   -0.033133
 ---------------------------------------------------------------------
 Rotational constants (GHZ):          15.6303669           4.1892113           3.3967141
 Standard basis: 6-31G(d,p) (6D, 7F)
 There are   100 symmetry adapted cartesian basis functions of A   symmetry.
 There are   100 symmetry adapted basis functions of A   symmetry.
   100 basis functions,   168 primitive gaussians,   100 cartesian basis functions
    16 alpha electrons       16 beta electrons
       nuclear repulsion energy       111.9027363266 Hartrees.
 NAtoms=   12 NActive=   12 NUniq=   12 SFac= 1.00D+00 NAtFMM=   60 NAOKFM=F Big=F
 Integral buffers will be    131072 words long.
 Raffenetti 2 integral format.
 Two-electron integral symmetry is turned on.
 One-electron integrals computed using PRISM.
 NBasis=   100 RedAO= T EigKep=  4.08D-03  NBF=   100
 NBsUse=   100 1.00D-06 EigRej= -1.00D+00 NBFU=   100
 Initial guess from the checkpoint file:  "/scratch/1311840/Gau-8904.chk"
 B after Tr=    -0.000000    0.000000   -0.000000
         Rot=    1.000000    0.000000    0.000020   -0.000000 Ang=   0.00 deg.
 Initial guess <Sx>= 0.0000 <Sy>= 0.0000 <Sz>= 0.0000 <S**2>=-0.0000 S=-0.0000
 Keep R1 and R2 ints in memory in canonical form, NReq=29209894.
 Requested convergence on RMS density matrix=1.00D-08 within1024 cycles.
 Requested convergence on MAX density matrix=1.00D-06.
 Requested convergence on             energy=1.00D-06.
 No special actions if energy rises.
 SCF Done:  E(UB3LYP) =  -164.078780015     A.U. after    7 cycles
            NFock=  7  Conv=0.52D-08     -V/T= 2.0099
 <Sx>= 0.0000 <Sy>= 0.0000 <Sz>= 0.0000 <S**2>=-0.0000 S=-0.0000
 <L.S>= 0.000000000000E+00
 Annihilation of the first spin contaminant:
 S**2 before annihilation    -0.0000,   after     0.0000
 Calling FoFJK, ICntrl=      2127 FMM=F ISym2X=0 I1Cent= 0 IOpClX= 1 NMat=1 NMatS=1 NMatT=0.
 ***** Axes restored to original set *****
 -------------------------------------------------------------------
 Center     Atomic                   Forces (Hartrees/Bohr)
 Number     Number              X              Y              Z
 -------------------------------------------------------------------
      1        7           0.000143720   -0.000090148    0.000068630
      2        5          -0.000435859    0.000087581    0.000133177
      3        7          -0.000143692   -0.000090127   -0.000068599
      4        5           0.000435890    0.000087582   -0.000133194
      5        1           0.000034849    0.000102357    0.000135018
      6        1           0.000031925    0.000025831    0.000002304
      7        1          -0.000008660   -0.000012155   -0.000077231
      8        1           0.000056034   -0.000113471    0.000088672
      9        1          -0.000034904    0.000102367   -0.000135047
     10        1          -0.000056015   -0.000113485   -0.000088665
     11        1           0.000008639   -0.000012159    0.000077222
     12        1          -0.000031926    0.000025828   -0.000002286
 -------------------------------------------------------------------
 Cartesian Forces:  Max     0.000435890 RMS     0.000131353

 GradGradGradGradGradGradGradGradGradGradGradGradGradGradGradGradGradGrad
 Berny optimization.
 Using GEDIIS/GDIIS optimizer.
 FormGI is forming the generalized inverse of G from B-inverse, IUseBI=4.
 Internal  Forces:  Max     0.000158019 RMS     0.000065665
 Search for a local minimum.
 Step number   3 out of a maximum of   65
 All quantities printed in internal units (Hartrees-Bohrs-Radians)
 Mixed Optimization -- En-DIIS/RFO-DIIS
 Swapping is turned off.
 Update second derivatives using D2CorX and points    1    2    3
 DE= -6.44D-06 DEPred=-4.02D-06 R= 1.60D+00
 TightC=F SS=  1.41D+00  RLast= 1.45D-02 DXNew= 5.0454D-01 4.3635D-02
 Trust test= 1.60D+00 RLast= 1.45D-02 DXMaxT set to 3.00D-01
 ITU=  1  1  0
     Eigenvalues ---    0.00735   0.01734   0.02040   0.02052   0.02963
     Eigenvalues ---    0.03500   0.03557   0.08666   0.11849   0.14020
     Eigenvalues ---    0.14404   0.15004   0.15927   0.15994   0.15996
     Eigenvalues ---    0.16000   0.16000   0.16215   0.16387   0.17314
     Eigenvalues ---    0.18573   0.20147   0.24992   0.25169   0.40021
     Eigenvalues ---    0.40307   0.44726   0.46405   0.46426   0.46790
 En-DIIS/RFO-DIIS/Sim-DIIS IScMMF=       -3 using points:     3    2
 RFO step:  Lambda=-1.07704541D-05.
 DidBck=F Rises=F RFO-DIIS coefs:    3.00000   -2.00000
 Iteration  1 RMS(Cart)=  0.00445428 RMS(Int)=  0.00002022
 Iteration  2 RMS(Cart)=  0.00002132 RMS(Int)=  0.00000195
 Iteration  3 RMS(Cart)=  0.00000000 RMS(Int)=  0.00000195
 Variable       Old X    -DE/DX   Delta X   Delta X   Delta X     New X
                                 (Linear)    (Quad)   (Total)
    R1        2.71588  -0.00000   0.00042  -0.00033   0.00009   2.71597
    R2        1.90468   0.00013   0.00027  -0.00022   0.00005   1.90473
    R3        1.90286  -0.00000   0.00000  -0.00004  -0.00004   1.90282
    R4        3.42910   0.00009   0.00357  -0.00037   0.00320   3.43230
    R5        2.25459   0.00001  -0.00064   0.00039  -0.00024   2.25435
    R6        2.48376   0.00011   0.00164   0.00024   0.00188   2.48564
    R7        2.57148   0.00004   0.00169  -0.00079   0.00090   2.57238
    R8        2.71588  -0.00000   0.00042  -0.00033   0.00009   2.71597
    R9        1.90286  -0.00000   0.00000  -0.00004  -0.00004   1.90282
   R10        1.90468   0.00013   0.00027  -0.00022   0.00005   1.90473
   R11        2.57148   0.00004   0.00169  -0.00079   0.00090   2.57238
   R12        2.48376   0.00011   0.00164   0.00024   0.00188   2.48564
   R13        2.25459   0.00001  -0.00064   0.00039  -0.00024   2.25435
    A1        2.16123   0.00003   0.00104  -0.00005   0.00099   2.16222
    A2        2.07855  -0.00008  -0.00328   0.00150  -0.00178   2.07677
    A3        1.96010   0.00006   0.00320  -0.00121   0.00199   1.96209
    A4        2.13562  -0.00016  -0.00264   0.00009  -0.00256   2.13306
    A5        2.07805   0.00011   0.00312  -0.00073   0.00239   2.08044
    A6        2.01060  -0.00001   0.00020   0.00035   0.00055   2.01115
    A7        2.04618  -0.00005  -0.00282   0.00032  -0.00250   2.04368
    A8        2.06874   0.00005  -0.00052   0.00068   0.00016   2.06890
    A9        1.84642  -0.00004  -0.00105  -0.00025  -0.00130   1.84512
   A10        1.78539  -0.00002   0.00046   0.00056   0.00102   1.78641
   A11        1.63345  -0.00002  -0.00073  -0.00012  -0.00085   1.63260
   A12        2.07855  -0.00008  -0.00328   0.00150  -0.00178   2.07677
   A13        2.16123   0.00003   0.00104  -0.00005   0.00099   2.16222
   A14        1.96010   0.00006   0.00320  -0.00121   0.00199   1.96209
   A15        2.13562  -0.00016  -0.00264   0.00009  -0.00256   2.13306
   A16        2.06874   0.00005  -0.00052   0.00068   0.00016   2.06890
   A17        2.04618  -0.00005  -0.00282   0.00032  -0.00250   2.04368
   A18        2.01060  -0.00001   0.00020   0.00035   0.00055   2.01115
   A19        2.07805   0.00011   0.00312  -0.00073   0.00239   2.08044
   A20        1.63345  -0.00002  -0.00073  -0.00012  -0.00085   1.63260
   A21        1.78539  -0.00002   0.00046   0.00056   0.00102   1.78641
   A22        1.84642  -0.00004  -0.00105  -0.00025  -0.00130   1.84512
    D1        0.11164   0.00004   0.00399   0.00235   0.00634   0.11798
    D2       -2.98708   0.00004   0.00505   0.00150   0.00655  -2.98053
    D3        1.07477  -0.00000   0.00329   0.00225   0.00554   1.08031
    D4       -0.82179   0.00007   0.00600   0.00195   0.00794  -0.81385
    D5        2.79257   0.00006   0.00726   0.00270   0.00996   2.80253
    D6       -0.30614   0.00006   0.00832   0.00185   0.01017  -0.29597
    D7       -2.52748   0.00002   0.00656   0.00260   0.00916  -2.51832
    D8        1.85914   0.00009   0.00926   0.00230   0.01156   1.87070
    D9       -0.03227   0.00004   0.00427  -0.00019   0.00407  -0.02819
   D10        3.06667   0.00004   0.00330   0.00063   0.00392   3.07059
   D11        3.06667   0.00004   0.00330   0.00063   0.00392   3.07059
   D12       -0.11759   0.00004   0.00232   0.00144   0.00377  -0.11382
   D13        2.79258   0.00006   0.00726   0.00270   0.00996   2.80254
   D14        1.85915   0.00009   0.00926   0.00230   0.01156   1.87071
   D15       -2.52747   0.00002   0.00655   0.00260   0.00915  -2.51831
   D16       -0.30613   0.00006   0.00832   0.00185   0.01017  -0.29597
   D17        0.11163   0.00004   0.00399   0.00235   0.00634   0.11798
   D18       -0.82179   0.00007   0.00600   0.00195   0.00794  -0.81385
   D19        1.07477  -0.00000   0.00329   0.00225   0.00554   1.08031
   D20       -2.98708   0.00004   0.00505   0.00150   0.00655  -2.98053
         Item               Value     Threshold  Converged?
 Maximum Force            0.000158     0.000450     YES
 RMS     Force            0.000066     0.000300     YES
 Maximum Displacement     0.018404     0.001800     NO 
 RMS     Displacement     0.004456     0.001200     NO 
 Predicted change in Energy=-5.392931D-06
 GradGradGradGradGradGradGradGradGradGradGradGradGradGradGradGradGradGrad

                          Input orientation:                          
 ---------------------------------------------------------------------
 Center     Atomic      Atomic             Coordinates (Angstroms)
 Number     Number       Type             X           Y           Z
 ---------------------------------------------------------------------
      1          7           0       -1.673811   -0.550401   -0.045622
      2          5           0       -0.908016    0.665445   -0.015450
      3          7           0        1.673811   -0.550401    0.045622
      4          5           0        0.908016    0.665445    0.015451
      5          1           0        2.641574   -0.524608   -0.231285
      6          1           0       -1.478888    1.711745    0.034454
      7          1           0       -0.017234    0.790972   -0.975076
      8          1           0       -1.271916   -1.470123    0.046763
      9          1           0       -2.641573   -0.524608    0.231290
     10          1           0        1.271916   -1.470124   -0.046760
     11          1           0        0.017233    0.790973    0.975077
     12          1           0        1.478888    1.711745   -0.034453
 ---------------------------------------------------------------------
                    Distance matrix (angstroms):
                    1          2          3          4          5
     1  N    0.000000
     2  B    1.437231   0.000000
     3  N    3.348865   2.854442   0.000000
     4  B    2.854442   1.816295   1.437231   0.000000
     5  H    4.319454   3.749986   1.006930   2.117150   0.000000
     6  H    2.271940   1.192950   3.880327   2.606226   4.695753
     7  H    2.325385   1.315346   2.387622   1.361245   3.058305
     8  H    1.007940   2.167243   3.085967   3.051841   4.035679
     9  H    1.006930   2.117150   4.319453   3.749986   5.303359
    10  H    3.085968   3.051842   1.007940   2.167244   1.674518
    11  H    2.387622   1.361245   2.325386   1.315346   3.173834
    12  H    3.880327   2.606226   2.271939   1.192950   2.528211
                    6          7          8          9         10
     6  H    0.000000
     7  H    2.000852   0.000000
     8  H    3.188616   2.780455   0.000000
     9  H    2.528212   3.173835   1.674518   0.000000
    10  H    4.206876   2.763373   2.545550   4.035680   0.000000
    11  H    1.992730   1.950458   2.763372   3.058304   2.780456
    12  H    2.958578   1.992730   4.206875   4.695752   3.188617
                   11         12
    11  H    0.000000
    12  H    2.000852   0.000000
 Stoichiometry    B2H8N2
 Framework group  C1[X(B2H8N2)]
 Deg. of freedom    30
 Full point group                 C1      NOp   1
 Largest Abelian subgroup         C1      NOp   1
 Largest concise Abelian subgroup C1      NOp   1
                         Standard orientation:                         
 ---------------------------------------------------------------------
 Center     Atomic      Atomic             Coordinates (Angstroms)
 Number     Number       Type             X           Y           Z
 ---------------------------------------------------------------------
      1          7           0       -1.673667   -0.549301   -0.050615
      2          5           0       -0.907966    0.666544   -0.018158
      3          7           0        1.673667   -0.549301    0.050614
      4          5           0        0.907966    0.666544    0.018159
      5          1           0        2.642252   -0.523508   -0.223405
      6          1           0       -1.478984    1.712845    0.030042
      7          1           0       -0.014325    0.792072   -0.975124
      8          1           0       -1.272049   -1.469023    0.042968
      9          1           0       -2.642251   -0.523508    0.223409
     10          1           0        1.272050   -1.469024   -0.042967
     11          1           0        0.014325    0.792072    0.975124
     12          1           0        1.478984    1.712845   -0.030042
 ---------------------------------------------------------------------
 Rotational constants (GHZ):          15.5996055           4.1958641           3.3992700
 Standard basis: 6-31G(d,p) (6D, 7F)
 There are   100 symmetry adapted cartesian basis functions of A   symmetry.
 There are   100 symmetry adapted basis functions of A   symmetry.
   100 basis functions,   168 primitive gaussians,   100 cartesian basis functions
    16 alpha electrons       16 beta electrons
       nuclear repulsion energy       111.9054650899 Hartrees.
 NAtoms=   12 NActive=   12 NUniq=   12 SFac= 1.00D+00 NAtFMM=   60 NAOKFM=F Big=F
 Integral buffers will be    131072 words long.
 Raffenetti 2 integral format.
 Two-electron integral symmetry is turned on.
 One-electron integrals computed using PRISM.
 NBasis=   100 RedAO= T EigKep=  4.08D-03  NBF=   100
 NBsUse=   100 1.00D-06 EigRej= -1.00D+00 NBFU=   100
 Initial guess from the checkpoint file:  "/scratch/1311840/Gau-8904.chk"
 B after Tr=    -0.000000   -0.000000   -0.000000
         Rot=    1.000000    0.000000    0.000050   -0.000000 Ang=   0.01 deg.
 Initial guess <Sx>= 0.0000 <Sy>= 0.0000 <Sz>= 0.0000 <S**2>=-0.0000 S=-0.0000
 Keep R1 and R2 ints in memory in canonical form, NReq=29209894.
 Requested convergence on RMS density matrix=1.00D-08 within1024 cycles.
 Requested convergence on MAX density matrix=1.00D-06.
 Requested convergence on             energy=1.00D-06.
 No special actions if energy rises.
 SCF Done:  E(UB3LYP) =  -164.078786911     A.U. after    8 cycles
            NFock=  8  Conv=0.13D-08     -V/T= 2.0099
 <Sx>= 0.0000 <Sy>= 0.0000 <Sz>= 0.0000 <S**2>=-0.0000 S=-0.0000
 <L.S>= 0.000000000000E+00
 Annihilation of the first spin contaminant:
 S**2 before annihilation    -0.0000,   after     0.0000
 Calling FoFJK, ICntrl=      2127 FMM=F ISym2X=0 I1Cent= 0 IOpClX= 1 NMat=1 NMatS=1 NMatT=0.
 ***** Axes restored to original set *****
 -------------------------------------------------------------------
 Center     Atomic                   Forces (Hartrees/Bohr)
 Number     Number              X              Y              Z
 -------------------------------------------------------------------
      1        7           0.000025355    0.000271794   -0.000026237
      2        5           0.000316157   -0.000126251    0.000332273
      3        7          -0.000025262    0.000271762    0.000026265
      4        5          -0.000316229   -0.000126249   -0.000332281
      5        1           0.000020414   -0.000126714    0.000091170
      6        1          -0.000095029   -0.000010038   -0.000031818
      7        1           0.000094095    0.000019242    0.000074641
      8        1          -0.000056079   -0.000028009    0.000105729
      9        1          -0.000020413   -0.000126722   -0.000091179
     10        1           0.000056032   -0.000027992   -0.000105728
     11        1          -0.000094074    0.000019216   -0.000074649
     12        1           0.000095031   -0.000010038    0.000031814
 -------------------------------------------------------------------
 Cartesian Forces:  Max     0.000332281 RMS     0.000142663

 GradGradGradGradGradGradGradGradGradGradGradGradGradGradGradGradGradGrad
 Berny optimization.
 Using GEDIIS/GDIIS optimizer.
 FormGI is forming the generalized inverse of G from B-inverse, IUseBI=4.
 Internal  Forces:  Max     0.000153833 RMS     0.000063681
 Search for a local minimum.
 Step number   4 out of a maximum of   65
 All quantities printed in internal units (Hartrees-Bohrs-Radians)
 Mixed Optimization -- En-DIIS/RFO-DIIS
 Swapping is turned off.
 Update second derivatives using D2CorX and points    1    2    3    4
 DE= -6.90D-06 DEPred=-5.39D-06 R= 1.28D+00
 TightC=F SS=  1.41D+00  RLast= 3.65D-02 DXNew= 5.0454D-01 1.0963D-01
 Trust test= 1.28D+00 RLast= 3.65D-02 DXMaxT set to 3.00D-01
 ITU=  1  1  1  0
     Eigenvalues ---    0.00409   0.01734   0.02041   0.02048   0.02945
     Eigenvalues ---    0.03498   0.03634   0.09135   0.11860   0.14039
     Eigenvalues ---    0.14398   0.15290   0.15977   0.15994   0.16000
     Eigenvalues ---    0.16000   0.16005   0.16388   0.16399   0.18575
     Eigenvalues ---    0.19938   0.22768   0.24992   0.25784   0.40021
     Eigenvalues ---    0.40792   0.44726   0.46393   0.46426   0.46770
 En-DIIS/RFO-DIIS/Sim-DIIS IScMMF=       -3 using points:     4    3    2
 RFO step:  Lambda=-4.31067295D-06.
 DIIS inversion failure, remove point   3.
 RFO-DIIS uses    2 points instead of    3
 DidBck=F Rises=F RFO-DIIS coefs:    1.77299   -0.77299    0.00000
 Iteration  1 RMS(Cart)=  0.00344509 RMS(Int)=  0.00001179
 Iteration  2 RMS(Cart)=  0.00001293 RMS(Int)=  0.00000130
 Iteration  3 RMS(Cart)=  0.00000000 RMS(Int)=  0.00000130
 Variable       Old X    -DE/DX   Delta X   Delta X   Delta X     New X
                                 (Linear)    (Quad)   (Total)
    R1        2.71597  -0.00007   0.00007  -0.00015  -0.00008   2.71590
    R2        1.90473   0.00001   0.00004  -0.00009  -0.00006   1.90468
    R3        1.90282  -0.00001  -0.00003  -0.00001  -0.00004   1.90278
    R4        3.43230  -0.00009   0.00247  -0.00154   0.00093   3.43323
    R5        2.25435   0.00004  -0.00019   0.00007  -0.00012   2.25423
    R6        2.48564   0.00004   0.00145   0.00006   0.00151   2.48716
    R7        2.57238  -0.00015   0.00069  -0.00128  -0.00059   2.57179
    R8        2.71597  -0.00007   0.00007  -0.00015  -0.00008   2.71590
    R9        1.90282  -0.00001  -0.00003  -0.00001  -0.00004   1.90278
   R10        1.90473   0.00001   0.00004  -0.00009  -0.00006   1.90468
   R11        2.57238  -0.00015   0.00069  -0.00128  -0.00059   2.57179
   R12        2.48564   0.00004   0.00145   0.00006   0.00151   2.48716
   R13        2.25435   0.00004  -0.00019   0.00007  -0.00012   2.25423
    A1        2.16222  -0.00001   0.00077  -0.00026   0.00050   2.16272
    A2        2.07677   0.00015  -0.00137   0.00119  -0.00018   2.07659
    A3        1.96209  -0.00013   0.00154  -0.00102   0.00051   1.96261
    A4        2.13306   0.00000  -0.00198   0.00059  -0.00139   2.13167
    A5        2.08044  -0.00009   0.00185  -0.00103   0.00082   2.08126
    A6        2.01115   0.00004   0.00042   0.00009   0.00051   2.01166
    A7        2.04368   0.00003  -0.00193   0.00080  -0.00114   2.04254
    A8        2.06890   0.00009   0.00012   0.00049   0.00062   2.06951
    A9        1.84512   0.00001  -0.00101  -0.00022  -0.00122   1.84389
   A10        1.78641   0.00003   0.00079   0.00034   0.00113   1.78754
   A11        1.63260  -0.00001  -0.00066   0.00030  -0.00036   1.63224
   A12        2.07677   0.00015  -0.00137   0.00119  -0.00018   2.07659
   A13        2.16222  -0.00001   0.00077  -0.00026   0.00050   2.16272
   A14        1.96209  -0.00013   0.00154  -0.00102   0.00051   1.96261
   A15        2.13306   0.00000  -0.00198   0.00059  -0.00139   2.13167
   A16        2.06890   0.00009   0.00012   0.00049   0.00062   2.06951
   A17        2.04368   0.00003  -0.00193   0.00080  -0.00114   2.04254
   A18        2.01115   0.00004   0.00042   0.00009   0.00051   2.01166
   A19        2.08044  -0.00009   0.00185  -0.00103   0.00082   2.08126
   A20        1.63260  -0.00001  -0.00066   0.00030  -0.00036   1.63224
   A21        1.78641   0.00003   0.00079   0.00034   0.00113   1.78754
   A22        1.84512   0.00001  -0.00101  -0.00022  -0.00122   1.84389
    D1        0.11798   0.00007   0.00490   0.00110   0.00600   0.12398
    D2       -2.98053   0.00002   0.00506  -0.00018   0.00489  -2.97564
    D3        1.08031   0.00004   0.00428   0.00111   0.00539   1.08570
    D4       -0.81385   0.00000   0.00614   0.00012   0.00626  -0.80759
    D5        2.80253   0.00007   0.00770   0.00062   0.00832   2.81085
    D6       -0.29597   0.00002   0.00786  -0.00066   0.00721  -0.28877
    D7       -2.51832   0.00005   0.00708   0.00063   0.00771  -2.51061
    D8        1.87070   0.00001   0.00894  -0.00036   0.00858   1.87928
    D9       -0.02819  -0.00002   0.00315  -0.00129   0.00186  -0.02633
   D10        3.07059   0.00002   0.00303  -0.00006   0.00297   3.07356
   D11        3.07059   0.00002   0.00303  -0.00006   0.00297   3.07356
   D12       -0.11382   0.00007   0.00291   0.00117   0.00409  -0.10973
   D13        2.80254   0.00007   0.00770   0.00062   0.00832   2.81086
   D14        1.87071   0.00001   0.00893  -0.00036   0.00858   1.87928
   D15       -2.51831   0.00005   0.00708   0.00063   0.00771  -2.51061
   D16       -0.29597   0.00002   0.00786  -0.00066   0.00720  -0.28876
[...]
   D15       -2.26316  -0.00000   0.00000   0.00184   0.00184  -2.26132
   D16       -0.15433   0.00001   0.00000   0.00169   0.00169  -0.15263
   D17        0.53483   0.00000   0.00000  -0.00094  -0.00094   0.53389
   D18       -0.43681  -0.00002   0.00000  -0.00128  -0.00128  -0.43809
   D19        1.43174  -0.00001   0.00000  -0.00117  -0.00117   1.43057
   D20       -2.74262   0.00000   0.00000  -0.00132  -0.00132  -2.74393
         Item               Value     Threshold  Converged?
 Maximum Force            0.000074     0.000450     YES
 RMS     Force            0.000026     0.000300     YES
 Maximum Displacement     0.002506     0.001800     NO 
 RMS     Displacement     0.001124     0.001200     YES
 Predicted change in Energy=-3.301145D-07
                           ----------------------------
                           ! Non-Optimized Parameters !
                           ! (Angstroms and Degrees)  !
 --------------------------                            --------------------------
 ! Name  Definition              Value          Derivative Info.                !
 --------------------------------------------------------------------------------
 ! R1    R(1,2)                  1.4386         -DE/DX =    0.0                 !
 ! R2    R(1,8)                  1.009          -DE/DX =    0.0                 !
 ! R3    R(1,9)                  1.0071         -DE/DX =    0.0                 !
 ! R4    R(2,4)                  1.8149         -DE/DX =   -0.0001              !
 ! R5    R(2,6)                  1.1931         -DE/DX =    0.0                 !
 ! R6    R(2,7)                  1.3759         -DE/DX =    0.0                 !
 ! R7    R(2,11)                 1.3046         -DE/DX =    0.0                 !
 ! R8    R(3,4)                  1.4386         -DE/DX =    0.0                 !
 ! R9    R(3,5)                  1.0071         -DE/DX =    0.0                 !
 ! R10   R(3,10)                 1.009          -DE/DX =    0.0                 !
 ! R11   R(4,7)                  1.3046         -DE/DX =    0.0                 !
 ! R12   R(4,11)                 1.3759         -DE/DX =    0.0                 !
 ! R13   R(4,12)                 1.1931         -DE/DX =    0.0                 !
 ! A1    A(2,1,8)              121.6809         -DE/DX =    0.0                 !
 ! A2    A(2,1,9)              118.9926         -DE/DX =    0.0                 !
 ! A3    A(8,1,9)              112.3275         -DE/DX =    0.0                 !
 ! A4    A(1,2,4)              118.2751         -DE/DX =    0.0                 !
 ! A5    A(1,2,6)              120.3894         -DE/DX =    0.0                 !
 ! A6    A(1,2,7)              114.8291         -DE/DX =    0.0                 !
 ! A7    A(1,2,11)             116.3868         -DE/DX =    0.0                 !
 ! A8    A(4,2,6)              120.8646         -DE/DX =    0.0001              !
 ! A9    A(6,2,7)              100.8746         -DE/DX =    0.0                 !
 ! A10   A(6,2,11)             107.0608         -DE/DX =    0.0                 !
 ! A11   A(7,2,11)              92.9797         -DE/DX =    0.0                 !
 ! A12   A(4,3,5)              118.9926         -DE/DX =    0.0                 !
 ! A13   A(4,3,10)             121.6809         -DE/DX =    0.0                 !
 ! A14   A(5,3,10)             112.3275         -DE/DX =    0.0                 !
 ! A15   A(2,4,3)              118.2751         -DE/DX =    0.0                 !
 ! A16   A(2,4,12)             120.8646         -DE/DX =    0.0001              !
 ! A17   A(3,4,7)              116.3868         -DE/DX =    0.0                 !
 ! A18   A(3,4,11)             114.8291         -DE/DX =    0.0                 !
 ! A19   A(3,4,12)             120.3894         -DE/DX =    0.0                 !
 ! A20   A(7,4,11)              92.9797         -DE/DX =    0.0                 !
 ! A21   A(7,4,12)             107.0608         -DE/DX =    0.0                 !
 ! A22   A(11,4,12)            100.8746         -DE/DX =    0.0                 !
 ! D1    D(8,1,2,4)             30.5896         -DE/DX =    0.0                 !
 ! D2    D(8,1,2,6)           -157.2157         -DE/DX =    0.0                 !
 ! D3    D(8,1,2,7)             81.9656         -DE/DX =    0.0                 !
 ! D4    D(8,1,2,11)           -25.1008         -DE/DX =    0.0                 !
 ! D5    D(9,1,2,4)            179.06           -DE/DX =    0.0                 !
 ! D6    D(9,1,2,6)             -8.7453         -DE/DX =    0.0                 !
 ! D7    D(9,1,2,7)           -129.564          -DE/DX =    0.0                 !
 ! D8    D(9,1,2,11)           123.3695         -DE/DX =    0.0                 !
 ! D9    D(1,2,4,3)             -3.4809         -DE/DX =    0.0                 !
 ! D10   D(1,2,4,12)          -175.637          -DE/DX =    0.0                 !
 ! D11   D(6,2,4,3)           -175.637          -DE/DX =    0.0                 !
 ! D12   D(6,2,4,12)            12.2069         -DE/DX =    0.0                 !
 ! D13   D(5,3,4,2)            179.06           -DE/DX =    0.0                 !
 ! D14   D(5,3,4,7)            123.3695         -DE/DX =    0.0                 !
 ! D15   D(5,3,4,11)          -129.564          -DE/DX =    0.0                 !
 ! D16   D(5,3,4,12)            -8.7453         -DE/DX =    0.0                 !
 ! D17   D(10,3,4,2)            30.5896         -DE/DX =    0.0                 !
 ! D18   D(10,3,4,7)           -25.1008         -DE/DX =    0.0                 !
 ! D19   D(10,3,4,11)           81.9656         -DE/DX =    0.0                 !
 ! D20   D(10,3,4,12)         -157.2157         -DE/DX =    0.0                 !
 --------------------------------------------------------------------------------
 GradGradGradGradGradGradGradGradGradGradGradGradGradGradGradGradGradGrad


 ----------------------------------------------------------------------

 Electric dipole moment (input orientation):
 (Debye = 10**-18 statcoulomb cm , SI units = C m)
                  (au)            (Debye)         (10**-30 SI)
   Tot        0.708480D+00      0.180078D+01      0.600674D+01
   x          0.000000D+00      0.000000D+00      0.000000D+00
   y         -0.708480D+00     -0.180078D+01     -0.600674D+01
   z          0.000000D+00      0.000000D+00      0.000000D+00

 Dipole polarizability, Alpha (input orientation).
 (esu units = cm**3 , SI units = C**2 m**2 J**-1)
 Alpha(0;0):
               (au)            (10**-24 esu)      (10**-40 SI)
   iso        0.416373D+02      0.617001D+01      0.686507D+01
   aniso      0.236265D+02      0.350108D+01      0.389548D+01
   xx         0.547517D+02      0.811337D+01      0.902734D+01
   yx         0.000000D+00      0.000000D+00      0.000000D+00
   yy         0.426350D+02      0.631786D+01      0.702957D+01
   zx        -0.461503D-01     -0.683877D-02     -0.760915D-02
   zy        -0.109476D-04     -0.162227D-05     -0.180502D-05
   zz         0.275252D+02      0.407881D+01      0.453829D+01

 ----------------------------------------------------------------------

 Dipole orientation:
     7         -3.00533295          0.02994474          1.10896329
     5         -1.71413690          0.05869256         -1.28328377
     7          3.00532963         -0.02994264          1.10897010
     5          1.71413885         -0.05868739         -1.28328004
     1          4.90603126         -0.12512084          1.13175779
     1         -2.87439589         -0.10639402         -3.20940867
     1          0.03571349         -1.83701712         -1.60168305
     1         -2.22350337          0.78381952          2.67629335
     1         -4.90603419          0.12513175          1.13174762
     1          2.22350078         -0.78382660          2.67629605
     1         -0.03571027          1.83702225         -1.60168252
     1          2.87440205          0.10640140         -3.20940227

 Electric dipole moment (dipole orientation):
 (Debye = 10**-18 statcoulomb cm , SI units = C m)
                  (au)            (Debye)         (10**-30 SI)
   Tot        0.708480D+00      0.180078D+01      0.600674D+01
   x          0.000000D+00      0.000000D+00      0.000000D+00
   y          0.000000D+00      0.000000D+00      0.000000D+00
   z          0.708480D+00      0.180078D+01      0.600674D+01

 Dipole polarizability, Alpha (dipole orientation).
 (esu units = cm**3 , SI units = C**2 m**2 J**-1)
 Alpha(0;0):
               (au)            (10**-24 esu)      (10**-40 SI)
   iso        0.416373D+02      0.617001D+01      0.686507D+01
   aniso      0.236265D+02      0.350108D+01      0.389548D+01
   xx         0.547517D+02      0.811337D+01      0.902734D+01
   yx        -0.461215D-01     -0.683450D-02     -0.760441D-02
   yy         0.275252D+02      0.407881D+01      0.453829D+01
   zx         0.135237D-04      0.200401D-05      0.222976D-05
   zy        -0.192954D-04     -0.285929D-05     -0.318138D-05
   zz         0.426350D+02      0.631786D+01      0.702957D+01

 ----------------------------------------------------------------------
 1\1\GINC-MNODE009\Freq\UB3LYP\6-31G(d,p)\B2H8N2\MARIAHARRIS\03-Jul-202
 0\0\\#N Geom=AllCheck Guess=TCheck SCRF=Check GenChk UB3LYP/6-31G(d,p)
  Freq\\something title\\0,1\N,-1.5903530739,-0.5868397515,0.015848925\
 B,-0.9070828679,0.6790836312,0.0310583641\N,1.5903525541,-0.5868400563
 ,-0.015845471\B,0.907082468,0.6790834501,-0.0310583452\H,2.5961604996,
 -0.5988978178,-0.0662126445\H,-1.5210666551,1.6983442088,-0.056303078\
 H,0.0188968409,0.847572248,-0.9721093073\H,-1.1766253782,-1.4162338648
 ,0.4147835028\H,-2.5961607844,-0.5988976587,0.0662208108\H,1.176627001
 6,-1.4162344661,-0.4147815882\H,-0.0188969298,0.8475758133,0.972108636
 8\H,1.5210663251,1.6983442639,0.0563001948\\Version=EM64L-G16RevA.03\S
 tate=1-A\HF=-164.079201\S2=0.\S2-1=0.\S2A=0.\RMSD=2.219e-09\RMSF=4.088
 e-05\ZeroPoint=0.0994602\Thermal=0.1057647\Dipole=0.0000007,-0.7084795
 ,0.0000014\DipoleDeriv=-0.6874855,-0.2115876,0.0581565,-0.5830055,-0.7
 867483,-0.0736949,-0.1402013,-0.1991182,-0.6293186,1.1809332,0.3568344
 ,-0.0644844,0.5221834,0.7638147,-0.0538618,-0.0083612,-0.0688434,0.322
 9916,-0.6874849,0.2115869,0.0581577,0.5830046,-0.7867485,0.0736959,-0.
 1402011,0.1991195,-0.6293187,1.1809326,-0.3568347,-0.0644841,-0.522183
 5,0.7638152,0.0538607,-0.0083605,0.0688419,0.3229907,0.1231375,-0.0042
 512,0.0052666,0.0181686,0.1626135,-0.031392,0.0827551,-0.0671954,0.276
 4561,-0.2022712,0.081846,0.00036,0.0762792,-0.2273467,0.010996,0.01439
 74,0.0258616,-0.0557873,-0.5479848,-0.027385,0.0364745,-0.0298811,-0.0
 339876,0.0122891,0.0326121,0.0080844,-0.1697052,0.133671,0.0287232,-0.
 035774,0.0529497,0.1216545,0.0568842,0.0187964,0.1049908,0.2553641,0.1
 231381,0.0042515,0.0052673,-0.0181683,0.1626136,0.031392,0.0827564,0.0
 671954,0.2764558,0.1336707,-0.0287226,-0.0357745,-0.0529494,0.1216546,
 -0.0568841,0.0187961,-0.1049906,0.2553641,-0.5479854,0.0273851,0.03647
 42,0.0298815,-0.033988,-0.0122896,0.0326123,-0.0080851,-0.1697053,-0.2
 022713,-0.081846,0.0003601,-0.0762792,-0.227347,-0.0109954,0.0143983,-
 0.025861,-0.0557872\Polar=54.7517299,-0.0000008,42.6350403,-0.0461503,
 -0.0000109,27.5251925\Quadrupole=2.3545381,-0.3757236,-1.9788146,-0.00
 00041,-1.3394131,0.0000015\PG=C01 [X(B2H8N2)]\NImag=0\\0.73734729,-0.0
 0137486,0.65297809,0.05238245,-0.17912808,0.09868224,-0.12575822,-0.07
 983191,0.00336950,0.36172150,-0.09681366,-0.25590111,0.02128848,0.0099
 4269,0.51191780,-0.01396149,-0.00557443,-0.03384421,0.03971850,-0.0138
 3551,0.15872595,-0.00015634,-0.00326969,-0.00191037,-0.00225063,0.0191
 8799,0.00159323,0.73734663,0.00326971,0.00969872,0.00302788,-0.0125117
 4,-0.00961356,-0.00435178,0.00137417,0.65297834,-0.00191039,-0.0030278
 9,-0.00064607,0.00513062,0.00370309,-0.00671554,0.05238526,0.17912799,
 0.09868248,-0.00225062,0.01251174,0.00513060,-0.08698159,-0.01820362,-
 0.00979947,-0.12575814,0.07983182,0.00336909,0.36172152,-0.01918802,-0
 .00961354,-0.00370309,0.01820357,-0.02308961,0.00293116,0.09681369,-0.
 25590102,-0.02128795,-0.00994255,0.51191767,0.00159331,0.00435171,-0.0
 0671555,-0.00979949,-0.00293079,0.06847372,-0.01396192,0.00557500,-0.0
 3384425,0.03971871,0.01383456,0.15872608,0.00038695,0.00070528,0.00020
 240,-0.00084183,0.00042771,-0.00012481,-0.46329239,0.00123399,0.011891
 65,-0.01019838,-0.00318506,0.00215487,0.48203910,-0.00070097,0.0005974
 2,0.00018330,-0.00015360,-0.00337320,0.00075477,0.00882585,-0.05657976
 ,-0.01635949,0.02478182,0.00344948,-0.00112472,-0.00267030,0.05481888,
 0.00073307,0.00017459,0.00073293,0.00014416,-0.00043602,-0.00550174,0.
 03628979,-0.01765014,-0.00425736,-0.00505686,0.00408750,0.00011530,-0.
 01707006,0.01328020,0.01040657,0.01091446,-0.01042764,0.00232499,-0.09
 174171,0.08496614,-0.00875623,-0.00400062,-0.00074252,-0.00043647,-0.0
 0056397,0.00854709,0.00016362,-0.00026677,0.00100550,0.00011894,0.0952
 3538,0.00998160,-0.01503601,0.00320255,0.08239509,-0.17682665,0.012442
 31,0.00004214,-0.00018008,0.00032241,-0.00288930,0.00256132,-0.0011864
 2,-0.00022229,0.00010756,0.00011609,-0.09126566,0.18983351,0.00078035,
 0.00128355,0.00439002,-0.00969287,0.01187028,-0.02901783,-0.00007055,0
 .00048622,0.00276780,0.00205656,-0.00098430,-0.01337129,-0.00003061,-0
 .00022145,0.00168934,0.00737282,-0.01427890,0.02636288,-0.01455825,-0.
 01971197,0.00177674,-0.01233378,0.00852155,0.00413070,-0.01232187,0.01
 494160,-0.01094693,-0.04476356,-0.00174926,-0.02184995,0.00092652,0.00
 188221,-0.00418484,-0.00558097,0.00228904,0.01111270,0.09807271,-0.009
 57432,-0.00396656,0.00470420,-0.00198721,-0.01327442,0.00453311,0.0104
 7594,-0.00281932,0.00662195,0.00699242,-0.01937852,0.00586350,-0.00005
 759,-0.00148816,0.00188857,0.00511567,-0.00010759,-0.00670595,-0.00433
 933,0.03883139,-0.00081560,0.00344216,0.00730762,0.01113197,0.00222051
 ,-0.05988892,0.00206612,0.00112698,0.00604599,-0.03291250,0.00746538,-
 0.07838587,0.00039739,-0.00054990,0.00055606,-0.00197987,-0.00023112,0
 .00327798,0.01839837,-0.01177216,0.14483496,-0.12727823,0.11929027,-0.
 06282061,0.01079489,-0.00790673,0.00618252,0.00096764,0.00245808,-0.00
 096608,0.00291721,-0.00349074,0.00054838,0.00010256,0.00051647,-0.0005
 3445,-0.00060528,-0.00181423,-0.00070601,-0.00190741,-0.00040056,0.000
 21228,0.13007137,0.13406285,-0.31879788,0.14069833,0.01235001,-0.01705
 252,0.00844488,0.00031843,-0.00037997,-0.00031118,-0.00047813,0.000581
 03,0.00179199,-0.00004828,0.00011768,-0.00010273,-0.00311140,-0.002454
 78,0.00050801,0.00008030,-0.00028308,-0.00058686,-0.14111972,0.3345030
 4,-0.07731001,0.16123270,-0.07386856,-0.00127039,-0.00888784,-0.003744
 27,0.00022079,-0.00120858,-0.00059469,-0.00281923,0.00242329,0.0031545
 9,-0.00016007,-0.00042025,-0.00027941,-0.00100073,-0.00176255,0.002688
 90,0.00002517,0.00083411,-0.00081037,0.07238309,-0.14860886,0.07597434
 ,-0.46329217,-0.00123397,0.01189376,-0.01019839,0.00318505,0.00215491,
 0.00038695,-0.00070528,0.00020240,-0.00084183,-0.00042771,-0.00012482,
 -0.00002251,-0.00006713,0.00000210,0.00146668,0.00081548,-0.00032152,0
 .00094283,-0.00010178,-0.00070846,-0.01124280,-0.00446312,0.00376715,0
 .48203895,-0.00882584,-0.05657973,0.01635958,-0.02478181,0.00344948,0.
 00112481,0.00070098,0.00059742,-0.00018330,0.00015360,-0.00337320,-0.0
 0075475,0.00006713,0.00015356,-0.00006229,0.00149256,0.00075775,-0.000
 32664,-0.00069075,-0.00061496,-0.00060136,0.03261799,0.00205375,-0.003
 46742,0.00267031,0.05481884,0.03629192,0.01765024,-0.00425757,-0.00505
 684,-0.00408755,0.00011531,0.00073307,-0.00017460,0.00073293,0.0001441
 3,0.00043602,-0.00550175,0.00000210,0.00006229,0.00002120,0.00029641,0
 .00068752,-0.00207106,0.00542431,0.00162824,0.00041865,-0.01616254,-0.
 00102000,-0.00183043,-0.01707224,-0.01328023,0.01040673,0.00096763,-0.
 00245808,-0.00096608,0.00291722,0.00349074,0.00054837,-0.12727748,-0.1
 1928952,-0.06282080,0.01079485,0.00790669,0.00618256,-0.01124275,-0.03
 261803,-0.01616257,-0.00002753,-0.00027700,-0.00008125,-0.00205739,0.0
 0032516,-0.00001549,-0.00173504,0.00010268,0.00196017,0.00010256,-0.00
 051647,-0.00053444,0.13007062,-0.00031842,-0.00037998,0.00031118,0.000
 47814,0.00058104,-0.00179199,-0.13406222,-0.31879814,-0.14069894,-0.01
 234996,-0.01705250,-0.00844490,0.00446311,0.00205374,0.00102001,-0.000
 21500,0.00015127,0.00047831,-0.00209139,0.00094853,0.00063733,-0.00010
 268,0.00061294,-0.00030207,0.00004828,0.00011768,0.00010273,0.14111904
 ,0.33450329,0.00022080,0.00120859,-0.00059468,-0.00281925,-0.00242329,
 0.00315457,-0.07731019,-0.16123328,-0.07386901,-0.00127034,0.00888793,
 -0.00374425,0.00376711,0.00346726,-0.00183048,0.00009155,0.00003794,-0
 .00056472,0.00411249,-0.00020540,-0.00002915,0.00196017,0.00030208,-0.
 00009622,-0.00016007,0.00042025,-0.00027942,0.07238326,0.14860947,0.07
 597485,-0.01232188,-0.01494169,-0.01094690,-0.04476350,0.00174924,-0.0
 2184990,-0.01455820,0.01971206,0.00177667,-0.01233380,-0.00852156,0.00
 413077,0.00094281,0.00069075,0.00542429,-0.00439817,0.00023087,-0.0103
 0215,-0.00202068,-0.00109888,0.00230333,-0.00205738,0.00209139,0.00411
 250,0.00092650,-0.00188219,-0.00418482,-0.00190742,-0.00008032,0.00002
 521,0.09807271,-0.01047593,-0.00281934,-0.00662191,-0.00699253,-0.0193
 7857,-0.00586370,0.00957430,-0.00396661,-0.00470417,0.00198726,-0.0132
 7444,-0.00453329,0.00010178,-0.00061495,-0.00162822,0.00534953,0.00110
 380,0.00790405,0.00109889,0.00104889,-0.00051397,-0.00032516,0.0009485
 3,0.00020540,0.00005759,-0.00148815,-0.00188856,0.00040058,-0.00028308
 ,-0.00083413,0.00433937,0.03883151,0.00206614,-0.00112695,0.00604603,-
 0.03291243,-0.00746558,-0.07838571,-0.00081562,-0.00344213,0.00730764,
 0.01113199,-0.00222069,-0.05988897,-0.00070846,0.00060136,0.00041865,0
 .00192243,0.00063700,0.00337682,0.00230336,0.00051389,-0.02670381,-0.0
 0001549,-0.00063733,-0.00002915,0.00039739,0.00054990,0.00055606,0.000
 21228,0.00058686,-0.00081037,0.01839825,0.01177254,0.14483485,-0.00400
 062,0.00074253,-0.00043647,-0.00056398,-0.00854710,0.00016367,0.010914
 45,0.01042765,0.00232498,-0.09174170,-0.08496615,-0.00875602,0.0014666
 8,-0.00149256,0.00029642,-0.00043149,0.00071428,-0.00011746,-0.0043981
 5,-0.00534951,0.00192245,-0.00002753,0.00021500,0.00009156,-0.00026677
 ,-0.00100550,0.00011894,-0.00060527,0.00311140,-0.00100075,-0.00558099
 ,-0.00511569,-0.00197985,0.09523539,-0.00004214,-0.00018008,-0.0003224
 0,0.00288931,0.00256133,0.00118638,-0.00998157,-0.01503602,-0.00320252
 ,-0.08239510,-0.17682668,-0.01244190,-0.00081548,0.00075775,-0.0006875
 5,-0.00071428,0.00008990,-0.00001317,-0.00023090,0.00110378,-0.0006370
 0,0.00027700,0.00015126,-0.00003794,0.00022229,0.00010756,-0.00011609,
 0.00181421,-0.00245478,0.00176260,-0.00228903,-0.00010757,0.00023113,0
 .09126567,0.18983355,-0.00007054,-0.00048618,0.00276781,0.00205652,0.0
 0098422,-0.01337132,0.00078038,-0.00128356,0.00439006,-0.00969266,-0.0
 1186982,-0.02901775,-0.00032150,0.00032663,-0.00207106,-0.00011746,0.0
 0001317,0.00047116,-0.01030214,-0.00790404,0.00337685,-0.00008125,-0.0
 0047832,-0.00056472,-0.00003061,0.00022145,0.00168934,-0.00070602,-0.0
 0050799,0.00268887,0.01111276,0.00670597,0.00327796,0.00737253,0.01427
 846,0.02636279\\-0.00002901,-0.00003119,-0.00003000,-0.00011545,-0.000
 05581,-0.00001637,0.00002897,-0.00003120,0.00002999,0.00011544,-0.0000
 5581,0.00001638,0.00001835,0.00001659,0.00000639,0.00005013,0.00004258
 ,-0.00000861,-0.00005763,0.00001512,-0.00000838,0.00003772,0.00001271,
 0.00001991,-0.00001836,0.00001658,-0.00000636,-0.00003769,0.00001272,-
 0.00001994,0.00005764,0.00001515,0.00000838,-0.00005012,0.00004257,0.0
 0000861\\\@


  THE LARGE PRINT GIVETH,
  AND THE SMALL PRINT TAKETH AWAY.

                     -- TOM WAITS
 Job cpu time:       0 days  0 hours 10 minutes 53.1 seconds.
 Elapsed time:       0 days  0 hours  2 minutes 43.4 seconds.
 File lengths (MBytes):  RWF=     29 Int=      0 D2E=      0 Chk=      2 Scr=      1
 Normal termination of Gaussian 16 at Fri Jul  3 18:39:29 2020.
