 Entering Gaussian System, Link 0=/opt/gaussian/g16/legacy/g16/g16
 Initial command:
 /opt/gaussian/g16/legacy/g16/l1.exe "/scratch/1311851/Gau-12480.inp" -scrdir="/scratch/1311851/"
 Entering Link 1 = /opt/gaussian/g16/legacy/g16/l1.exe PID=     12494.
  
 Copyright (c) 1988,1990,1992,1993,1995,1998,2003,2009,2016,
            Gaussian, Inc.  All Rights Reserved.
  
 This is part of the Gaussian(R) 16 program.  It is based on
 the Gaussian(R) 09 system (copyright 2009, Gaussian, Inc.),
 the Gaussian(R) 03 system (copyright 2003, Gaussian, Inc.),
 the Gaussian(R) 98 system (copyright 1998, Gaussian, Inc.),
 the Gaussian(R) 94 system (copyright 1995, Gaussian, Inc.),
 the Gaussian 92(TM) system (copyright 1992, Gaussian, Inc.),
 the Gaussian 90(TM) system (copyright 1990, Gaussian, Inc.),
 the Gaussian 88(TM) system (copyright 1988, Gaussian, Inc.),
 the Gaussian 86(TM) system (copyright 1986, Carnegie Mellon
 University), and the Gaussian 82(TM) system (copyright 1983,
 Carnegie Mellon University). Gaussian is a federally registered
 trademark of Gaussian, Inc.
  
 This software contains proprietary and confidential information,
 including trade secrets, belonging to Gaussian, Inc.
  
 This software is provided under written license and may be
 used, copied, transmitted, or stored only in accord with that
 written license.
  
 The following legend is applicable only to US Government
 contracts under FAR:
  
                    RESTRICTED RIGHTS LEGEND
  
 Use, reproduction and disclosure by the US Government is
 subject to restrictions as set forth in subparagraphs (a)
 and (c) of the Commercial Computer Software - Restricted
 Rights clause in FAR 52.227-19.
  
 Gaussian, Inc.
 340 Quinnipiac St., Bldg. 40, Wallingford CT 06492
  
  
 ---------------------------------------------------------------
 Warning -- This program may not be used in any manner that
 competes with the business of Gaussian, Inc. or will provide
 assistance to any competitor of Gaussian, Inc.  The licensee
 of this program is prohibited from giving any competitor of
 Gaussian, Inc. access to this program.  By using this program,
 the user acknowledges that Gaussian, Inc. is engaged in the
 business of creating and licensing software in the field of
 computational chemistry and represents and warrants to the
 licensee that it is not a competitor of Gaussian, Inc. and that
 it will not use this program in any manner prohibited above.
 ---------------------------------------------------------------
  

 Cite this work as:
 Gaussian 16, Revision A.03,
 M. J. Frisch, G. W. Trucks, H. B. Schlegel, G. E. Scuseria, 
 M. A. Robb, J. R. Cheeseman, G. Scalmani, V. Barone, 
 G. A. Petersson, H. Nakatsuji, X. Li, M. Caricato, A. V. Marenich, 
 J. Bloino, B. G. Janesko, R. Gomperts, B. Mennucci, H. P. Hratchian, 
 J. V. Ortiz, A. F. Izmaylov, J. L. Sonnenberg, D. Williams-Young, 
 F. Ding, F. Lipparini, F. Egidi, J. Goings, B. Peng, A. Petrone, 
 T. Henderson, D. Ranasinghe, V. G. Zakrzewski, J. Gao, N. Rega, 
 G. Zheng, W. Liang, M. Hada, M. Ehara, K. Toyota, R. Fukuda, 
 J. Hasegawa, M. Ishida, T. Nakajima, Y. Honda, O. Kitao, H. Nakai, 
 T. Vreven, K. Throssell, J. A. Montgomery, Jr., J. E. Peralta, 
 F. Ogliaro, M. J. Bearpark, J. J. Heyd, E. N. Brothers, K. N. Kudin, 
 V. N. Staroverov, T. A. Keith, R. Kobayashi, J. Normand, 
 K. Raghavachari, A. P. Rendell, J. C. Burant, S. S. Iyengar, 
 J. Tomasi, M. Cossi, J. M. Millam, M. Klene, C. Adamo, R. Cammi, 
 J. W. Ochterski, R. L. Martin, K. Morokuma, O. Farkas, 
 J. B. Foresman, and D. J. Fox, Gaussian, Inc., Wallingford CT, 2016.
 
 ******************************************
 Gaussian 16:  EM64L-G16RevA.03 25-Dec-2016
                 3-Jul-2020 
 ******************************************
 %mem=16GB
 %nprocshared=4
 Will use up to    4 processors via shared memory.
 ----------------------------------------------------------------------
 #irc=(reverse calcfc, maxpoint=100, stepsize=5) ub3lyp/6-31G(d,p) scf=
 (maxcycles=1024)
 ----------------------------------------------------------------------
 1/10=4,18=10,22=2,26=3,38=1,39=5,42=100,44=3,172=1/1,23;
 2/12=2,17=6,18=5,29=1,40=1/2;
 3/5=1,6=6,7=101,11=2,25=1,30=1,71=2,74=-5,116=2,140=1/1,2,3;
 4//1;
 5/5=2,7=1024,38=5/2;
 8/6=4,10=90,11=11/1;
 11/6=1,8=1,9=11,15=111,16=1/1,2,10;
 10/6=1,13=1/2;
 6/7=2,8=2,9=2,10=2,28=1/1;
 7/10=1,18=20,25=1/1,2,3,16;
 1/10=4,18=10,22=2,26=3,39=5,42=100,44=3/23(2);
 2/29=1/2;
 99/5=20/99;
 2/29=1/2;
 3/5=1,6=6,7=101,11=2,25=1,30=1,71=2,74=-5,116=2,140=1/1,2,3;
 4/5=5,16=3,69=1/1;
 5/5=2,7=1024,38=5/2;
 8/6=4,10=90,11=11/1;
 11/6=1,8=1,9=11,15=111,16=1/1,2,10;
 10/6=1,13=1/2;
 7/10=1,18=20,25=1/1,2,3,16;
 1/18=10,22=2,26=3,39=5,42=100,44=3/23(-8);
 2/29=1/2;
 6/7=2,8=2,9=2,10=2,19=2,28=1/1;
 99/5=20,9=1/99;
 ---------------
 something title
 ---------------
 Symbolic Z-matrix:
 Charge =  0 Multiplicity = 1
 N                    -1.64834  -0.56017  -0.03571 
 B                    -0.9873    0.69566  -0.08602 
 N                     1.64828  -0.56021   0.03588 
 B                     0.98758   0.69549   0.08598 
 H                     2.51772  -0.69265  -0.4533 
 H                    -1.55049   1.69496   0.24089 
 H                    -0.15675   0.85067  -0.99641 
 H                    -1.2598   -1.4093   -0.41443 
 H                    -2.51785  -0.69232   0.45351 
 H                     1.25904  -1.40946   0.4135 
 H                     0.15627   0.85025   0.99582 
 H                     1.5509    1.69479  -0.24057 
 
 IRC-IRC-IRC-IRC-IRC-IRC-IRC-IRC-IRC-IRC-IRC-IRC-IRC-IRC-IRC-IRC-IRC-IRC
 ------------------------------------------------------------------------
 INPUT DATA FOR L123
 ------------------------------------------------------------------------
 GENERAL PARAMETERS:
 Rxn path following direction = Reverse
 Maximum points per path      = 100
 Step size                    =   0.050 bohr
 Integration scheme           = HPC                                 
    Redo corrector integration= Yes                                 
    DWI Weight Power          =  2
    DWI will use Hessian update vectors when possible.
    Max correction cycles     =  20
 Initial Hessian              = CalcFC
 Hessian evaluation           = All updating
 Hessian updating method      = Bofill                              
 ------------------------------------------------------------------------
 IRC-IRC-IRC-IRC-IRC-IRC-IRC-IRC-IRC-IRC-IRC-IRC-IRC-IRC-IRC-IRC-IRC-IRC
                          Input orientation:                          
 ---------------------------------------------------------------------
 Center     Atomic      Atomic             Coordinates (Angstroms)
 Number     Number       Type             X           Y           Z
 ---------------------------------------------------------------------
      1          7           0       -1.648340   -0.560170   -0.035710
      2          5           0       -0.987300    0.695660   -0.086020
      3          7           0        1.648280   -0.560210    0.035880
      4          5           0        0.987580    0.695490    0.085980
      5          1           0        2.517720   -0.692650   -0.453300
      6          1           0       -1.550490    1.694960    0.240890
      7          1           0       -0.156750    0.850670   -0.996410
      8          1           0       -1.259800   -1.409300   -0.414430
      9          1           0       -2.517850   -0.692320    0.453510
     10          1           0        1.259040   -1.409460    0.413500
     11          1           0        0.156270    0.850250    0.995820
     12          1           0        1.550900    1.694790   -0.240570
 ---------------------------------------------------------------------
                    Distance matrix (angstroms):
                    1          2          3          4          5
     1  N    0.000000
     2  B    1.420075   0.000000
     3  N    3.297397   2.922046   0.000000
     4  B    2.922253   1.982356   1.419795   0.000000
     5  H    4.189032   3.787805   1.006361   2.135201   0.000000
     6  H    2.274136   1.192750   3.919177   2.732167   4.767905
     7  H    2.266772   1.242035   2.512835   1.582763   3.135218
     8  H    1.007677   2.147782   3.062787   3.119498   3.845095
     9  H    1.006403   2.135454   4.189094   3.788025   5.116568
    10  H    3.062016   3.118829   1.007636   2.147504   1.688027
    11  H    2.511963   1.581780   2.266490   1.242109   3.171267
    12  H    3.919432   2.732143   2.273968   1.192713   2.584543
                    6          7          8          9         10
     6  H    0.000000
     7  H    2.046032   0.000000
     8  H    3.185965   2.581256   0.000000
     9  H    2.584589   3.171416   1.688215   0.000000
    10  H    4.190546   3.016703   2.651419   3.844579   0.000000
    11  H    2.048532   2.016671   3.016559   3.134412   2.580986
    12  H    3.138538   2.049366   4.191138   4.768099   3.185806
                   11         12
    11  H    0.000000
    12  H    2.046192   0.000000
 Symmetry turned off by external request.
 Stoichiometry    B2H8N2
 Framework group  C1[X(B2H8N2)]
 Deg. of freedom    30
 Full point group                 C1      NOp   1
 Rotational constants (GHZ):          14.5634912           4.1592905           3.3666025
 Standard basis: 6-31G(d,p) (6D, 7F)
   100 basis functions,   168 primitive gaussians,   100 cartesian basis functions
    16 alpha electrons       16 beta electrons
       nuclear repulsion energy       110.9003831856 Hartrees.
 NAtoms=   12 NActive=   12 NUniq=   12 SFac= 1.00D+00 NAtFMM=   60 NAOKFM=F Big=F
 Integral buffers will be    131072 words long.
 Raffenetti 2 integral format.
 Two-electron integral symmetry is turned off.
 One-electron integrals computed using PRISM.
 NBasis=   100 RedAO= T EigKep=  5.61D-03  NBF=   100
 NBsUse=   100 1.00D-06 EigRej= -1.00D+00 NBFU=   100
 ExpMin= 1.27D-01 ExpMax= 4.17D+03 ExpMxC= 6.27D+02 IAcc=3 IRadAn=         5 AccDes= 0.00D+00
 Harris functional with IExCor=  402 and IRadAn=       5 diagonalized for initial guess.
 HarFok:  IExCor=  402 AccDes= 0.00D+00 IRadAn=         5 IDoV= 1 UseB2=F ITyADJ=14
 ICtDFT=  3500011 ScaDFX=  1.000000  1.000000  1.000000  1.000000
 FoFCou: FMM=F IPFlag=           0 FMFlag=      100000 FMFlg1=           0
         NFxFlg=           0 DoJE=T BraDBF=F KetDBF=T FulRan=T
         wScrn=  0.000000 ICntrl=       500 IOpCl=  0 I1Cent=   200000004 NGrid=           0
         NMat0=    1 NMatS0=      1 NMatT0=    0 NMatD0=    1 NMtDS0=    0 NMtDT0=    0
 Symmetry not used in FoFCou.
 Initial guess <Sx>= 0.0000 <Sy>= 0.0000 <Sz>= 0.0000 <S**2>= 0.0000 S= 0.0000
 Keep R1 and R2 ints in memory in canonical form, NReq=29209630.
 Requested convergence on RMS density matrix=1.00D-08 within1024 cycles.
 Requested convergence on MAX density matrix=1.00D-06.
 Requested convergence on             energy=1.00D-06.
 No special actions if energy rises.
 Integral accuracy reduced to 1.0D-05 until final iterations.
 Initial convergence to 1.0D-05 achieved.  Increase integral accuracy.
 SCF Done:  E(UB3LYP) =  -164.078245640     A.U. after   12 cycles
            NFock= 12  Conv=0.18D-08     -V/T= 2.0099
 <Sx>= 0.0000 <Sy>= 0.0000 <Sz>= 0.0000 <S**2>=-0.0000 S=-0.0000
 <L.S>= 0.000000000000E+00
 Annihilation of the first spin contaminant:
 S**2 before annihilation    -0.0000,   after    -0.0000
 DoSCS=F DFT=T ScalE2(SS,OS)=  1.000000  1.000000
 Range of M.O.s used for correlation:     1   100
 NBasis=   100 NAE=    16 NBE=    16 NFC=     0 NFV=     0
 NROrb=    100 NOA=    16 NOB=    16 NVA=    84 NVB=    84
 Symmetrizing basis deriv contribution to polar:
 IMax=3 JMax=2 DiffMx= 0.00D+00
 G2DrvN: will do    13 centers at a time, making    1 passes.
 Calling FoFCou, ICntrl=  3107 FMM=F I1Cent=   0 AccDes= 0.00D+00.
 End of G2Drv F.D. properties file   721 does not exist.
 End of G2Drv F.D. properties file   722 does not exist.
 End of G2Drv F.D. properties file   788 does not exist.
          IDoAtm=111111111111
          Differentiating once with respect to nuclear coordinates.
 Keep R1 and R2 ints in memory in canonical form, NReq=29207575.
          There are    39 degrees of freedom in the 1st order CPHF.  IDoFFX=6 NUNeed=     0.
     33 vectors produced by pass  0 Test12= 6.89D-15 2.56D-09 XBig12= 1.44D-01 8.41D-02.
 AX will form    33 AO Fock derivatives at one time.
     33 vectors produced by pass  1 Test12= 6.89D-15 2.56D-09 XBig12= 7.21D-03 1.65D-02.
     33 vectors produced by pass  2 Test12= 6.89D-15 2.56D-09 XBig12= 5.57D-05 1.14D-03.
     33 vectors produced by pass  3 Test12= 6.89D-15 2.56D-09 XBig12= 9.01D-08 3.51D-05.
     33 vectors produced by pass  4 Test12= 6.89D-15 2.56D-09 XBig12= 6.64D-11 1.11D-06.
     14 vectors produced by pass  5 Test12= 6.89D-15 2.56D-09 XBig12= 3.53D-14 2.21D-08.
 InvSVY:  IOpt=1 It=  1 EMax= 1.33D-15
 Solved reduced A of dimension   179 with    33 vectors.
 End of Minotr F.D. properties file   721 does not exist.
 End of Minotr F.D. properties file   722 does not exist.
 End of Minotr F.D. properties file   788 does not exist.

 **********************************************************************

            Population analysis using the SCF density.

 **********************************************************************

 Alpha  occ. eigenvalues --  -14.31145 -14.31136  -6.74662  -6.74652  -0.85060
 Alpha  occ. eigenvalues --   -0.84233  -0.58752  -0.49845  -0.49359  -0.47967
 Alpha  occ. eigenvalues --   -0.43074  -0.36957  -0.34821  -0.32974  -0.27041
 Alpha  occ. eigenvalues --   -0.23217
 Alpha virt. eigenvalues --    0.02729   0.06457   0.11190   0.12713   0.15111
 Alpha virt. eigenvalues --    0.15595   0.17432   0.21611   0.22607   0.23828
 Alpha virt. eigenvalues --    0.28384   0.34079   0.42200   0.45729   0.47172
 Alpha virt. eigenvalues --    0.48037   0.54056   0.57248   0.66833   0.69333
 Alpha virt. eigenvalues --    0.73727   0.73840   0.78250   0.80452   0.82614
 Alpha virt. eigenvalues --    0.85294   0.87659   0.88994   0.91045   0.92436
 Alpha virt. eigenvalues --    0.94479   0.95716   1.11330   1.16755   1.17748
 Alpha virt. eigenvalues --    1.19632   1.25116   1.31857   1.42350   1.46959
 Alpha virt. eigenvalues --    1.48411   1.52412   1.53186   1.66557   1.68729
 Alpha virt. eigenvalues --    1.74816   1.80055   1.83491   2.02261   2.07534
 Alpha virt. eigenvalues --    2.07959   2.08888   2.15677   2.18237   2.25013
 Alpha virt. eigenvalues --    2.25957   2.33892   2.37565   2.43020   2.46505
 Alpha virt. eigenvalues --    2.51495   2.54742   2.59168   2.60156   2.63478
 Alpha virt. eigenvalues --    2.63894   2.65761   2.68406   2.75170   2.76902
 Alpha virt. eigenvalues --    2.95377   2.96235   3.04470   3.08278   3.21652
 Alpha virt. eigenvalues --    3.23603   3.29813   3.32452   3.54682   3.61521
 Alpha virt. eigenvalues --    3.62844   3.75875   4.19808   4.26254
  Beta  occ. eigenvalues --  -14.31145 -14.31136  -6.74662  -6.74652  -0.85060
  Beta  occ. eigenvalues --   -0.84233  -0.58752  -0.49845  -0.49359  -0.47967
  Beta  occ. eigenvalues --   -0.43074  -0.36957  -0.34821  -0.32974  -0.27041
  Beta  occ. eigenvalues --   -0.23217
  Beta virt. eigenvalues --    0.02729   0.06457   0.11190   0.12713   0.15111
  Beta virt. eigenvalues --    0.15595   0.17432   0.21611   0.22607   0.23828
  Beta virt. eigenvalues --    0.28384   0.34079   0.42200   0.45729   0.47172
  Beta virt. eigenvalues --    0.48037   0.54056   0.57248   0.66833   0.69333
  Beta virt. eigenvalues --    0.73727   0.73840   0.78250   0.80452   0.82614
  Beta virt. eigenvalues --    0.85294   0.87659   0.88994   0.91045   0.92436
  Beta virt. eigenvalues --    0.94479   0.95716   1.11330   1.16755   1.17748
  Beta virt. eigenvalues --    1.19632   1.25116   1.31857   1.42350   1.46959
  Beta virt. eigenvalues --    1.48411   1.52412   1.53186   1.66557   1.68729
  Beta virt. eigenvalues --    1.74816   1.80055   1.83491   2.02261   2.07534
  Beta virt. eigenvalues --    2.07959   2.08888   2.15677   2.18237   2.25013
  Beta virt. eigenvalues --    2.25957   2.33892   2.37565   2.43020   2.46505
  Beta virt. eigenvalues --    2.51495   2.54742   2.59168   2.60156   2.63478
  Beta virt. eigenvalues --    2.63894   2.65761   2.68406   2.75170   2.76902
  Beta virt. eigenvalues --    2.95377   2.96235   3.04470   3.08278   3.21652
  Beta virt. eigenvalues --    3.23603   3.29813   3.32452   3.54682   3.61521
  Beta virt. eigenvalues --    3.62844   3.75875   4.19808   4.26254
          Condensed to atoms (all electrons):
               1          2          3          4          5          6
     1  N    6.495159   0.470603  -0.005625  -0.011003  -0.000029  -0.023645
     2  B    0.470603   3.532959  -0.011007   0.099864   0.001106   0.402362
     3  N   -0.005625  -0.011007   6.494734   0.470733   0.363957   0.001164
     4  B   -0.011003   0.099864   0.470733   3.533071  -0.033536  -0.018980
     5  H   -0.000029   0.001106   0.363957  -0.033536   0.449376  -0.000024
     6  H   -0.023645   0.402362   0.001164  -0.018980  -0.000024   0.730825
     7  H   -0.019603   0.321793  -0.029054   0.073600  -0.000525  -0.019200
     8  H    0.354779  -0.036887   0.004290  -0.003242  -0.000041   0.003743
     9  H    0.363954  -0.033531  -0.000029   0.001106  -0.000000  -0.003263
    10  H    0.004307  -0.003239   0.354780  -0.036894  -0.031043   0.000039
    11  H   -0.029100   0.073713  -0.019592   0.321658   0.002712  -0.005726
    12  H    0.001163  -0.018943  -0.023651   0.402359  -0.003265   0.000503
               7          8          9         10         11         12
     1  N   -0.019603   0.354779   0.363954   0.004307  -0.029100   0.001163
     2  B    0.321793  -0.036887  -0.033531  -0.003239   0.073713  -0.018943
     3  N   -0.029054   0.004290  -0.000029   0.354780  -0.019592  -0.023651
     4  B    0.073600  -0.003242   0.001106  -0.036894   0.321658   0.402359
     5  H   -0.000525  -0.000041  -0.000000  -0.031043   0.002712  -0.003265
     6  H   -0.019200   0.003743  -0.003263   0.000039  -0.005726   0.000503
     7  H    0.779890  -0.004670   0.002710   0.000796  -0.073079  -0.005717
     8  H   -0.004670   0.468015  -0.031038   0.001312   0.000798   0.000039
     9  H    0.002710  -0.031038   0.449394  -0.000041  -0.000524  -0.000024
    10  H    0.000796   0.001312  -0.000041   0.467954  -0.004676   0.003745
    11  H   -0.073079   0.000798  -0.000524  -0.004676   0.779824  -0.019209
    12  H   -0.005717   0.000039  -0.000024   0.003745  -0.019209   0.730728
          Atomic-Atomic Spin Densities.
               1          2          3          4          5          6
     1  N   -0.000000   0.000000  -0.000000  -0.000000  -0.000000  -0.000000
     2  B    0.000000  -0.000000   0.000000   0.000000   0.000000  -0.000000
     3  N   -0.000000   0.000000  -0.000000  -0.000000   0.000000   0.000000
     4  B   -0.000000   0.000000  -0.000000  -0.000000  -0.000000  -0.000000
     5  H   -0.000000   0.000000   0.000000  -0.000000   0.000000   0.000000
     6  H   -0.000000  -0.000000   0.000000  -0.000000   0.000000   0.000000
     7  H    0.000000  -0.000000  -0.000000  -0.000000  -0.000000   0.000000
     8  H    0.000000   0.000000   0.000000  -0.000000  -0.000000  -0.000000
     9  H    0.000000   0.000000  -0.000000   0.000000   0.000000  -0.000000
    10  H    0.000000   0.000000   0.000000  -0.000000   0.000000  -0.000000
    11  H   -0.000000   0.000000  -0.000000   0.000000   0.000000  -0.000000
    12  H   -0.000000  -0.000000  -0.000000  -0.000000  -0.000000  -0.000000
               7          8          9         10         11         12
     1  N    0.000000   0.000000   0.000000   0.000000  -0.000000  -0.000000
     2  B   -0.000000   0.000000   0.000000   0.000000   0.000000  -0.000000
     3  N   -0.000000   0.000000  -0.000000   0.000000  -0.000000  -0.000000
     4  B   -0.000000  -0.000000   0.000000  -0.000000   0.000000  -0.000000
     5  H   -0.000000  -0.000000   0.000000   0.000000   0.000000  -0.000000
     6  H    0.000000  -0.000000  -0.000000  -0.000000  -0.000000  -0.000000
     7  H    0.000000  -0.000000  -0.000000   0.000000  -0.000000  -0.000000
     8  H   -0.000000  -0.000000   0.000000   0.000000   0.000000   0.000000
     9  H   -0.000000   0.000000  -0.000000  -0.000000   0.000000   0.000000
    10  H    0.000000   0.000000  -0.000000  -0.000000   0.000000  -0.000000
    11  H   -0.000000   0.000000   0.000000   0.000000  -0.000000  -0.000000
    12  H   -0.000000   0.000000   0.000000  -0.000000  -0.000000   0.000000
 Mulliken charges and spin densities:
               1          2
     1  N   -0.600960  -0.000000
     2  B    0.201208   0.000000
     3  N   -0.600702   0.000000
     4  B    0.201263  -0.000000
     5  H    0.251311   0.000000
     6  H   -0.067798   0.000000
     7  H   -0.026941   0.000000
     8  H    0.242901   0.000000
     9  H    0.251285   0.000000
    10  H    0.242960   0.000000
    11  H   -0.026800  -0.000000
    12  H   -0.067728   0.000000
 Sum of Mulliken charges =  -0.00000  -0.00000
 Mulliken charges and spin densities with hydrogens summed into heavy atoms:
               1          2
     1  N   -0.106773  -0.000000
     2  B    0.106469   0.000000
     3  N   -0.106431   0.000000
     4  B    0.106735  -0.000000
 APT charges:
               1
     1  N   -1.131531
     2  B   -0.344887
     3  N   -1.131031
     4  B   -0.344527
     5  H    0.708210
     6  H    0.261733
     7  H    0.118028
     8  H    0.388001
     9  H    0.708183
    10  H    0.387884
    11  H    0.118099
    12  H    0.261838
 Sum of APT charges =  -0.00000
 APT charges with hydrogens summed into heavy atoms:
               1
     1  N   -0.035347
     2  B    0.034874
     3  N   -0.034937
     4  B    0.035410
 Electronic spatial extent (au):  <R**2>=            389.3651
 Charge=             -0.0000 electrons
 Dipole moment (field-independent basis, Debye):
    X=              0.0023    Y=             -2.7359    Z=             -0.0008  Tot=              2.7359
 Quadrupole moment (field-independent basis, Debye-Ang):
   XX=            -24.0393   YY=            -25.8721   ZZ=            -28.0713
   XY=             -0.0000   XZ=             -2.7332   YZ=              0.0033
 Traceless Quadrupole moment (field-independent basis, Debye-Ang):
   XX=              1.9549   YY=              0.1221   ZZ=             -2.0771
   XY=             -0.0000   XZ=             -2.7332   YZ=              0.0033
 Octapole moment (field-independent basis, Debye-Ang**2):
  XXX=              0.0051  YYY=            -21.6551  ZZZ=              0.0007  XYY=              0.0045
  XXY=            -13.7533  XXZ=             -0.0020  XZZ=             -0.0011  YZZ=             -3.9070
  YYZ=             -0.0031  XYZ=              0.8601
 Hexadecapole moment (field-independent basis, Debye-Ang**3):
 XXXX=           -294.6128 YYYY=           -135.8140 ZZZZ=            -43.8414 XXXY=             -0.0018
 XXXZ=            -27.9704 YYYX=              0.0007 YYYZ=              0.0067 ZZZX=             -2.7062
 ZZZY=              0.0047 XXYY=            -76.9320 XXZZ=            -66.2394 YYZZ=            -30.3088
 XXYZ=              0.0070 YYXZ=              1.2605 ZZXY=              0.0028
 N-N= 1.109003831856D+02 E-N=-6.021655915080D+02  KE= 1.624650586669D+02
  Exact polarizability:   0.000   0.000   0.000   0.000   0.000   0.000
 Approx polarizability:  72.739  -0.003  59.577  -0.579  -0.001  43.218
                          Isotropic Fermi Contact Couplings
        Atom                 a.u.       MegaHertz       Gauss      10(-4) cm-1
     1  N(14)             -0.00000      -0.00000      -0.00000      -0.00000
     2  B(11)             -0.00000      -0.00000      -0.00000      -0.00000
     3  N(14)             -0.00000      -0.00000      -0.00000      -0.00000
     4  B(11)             -0.00000      -0.00000      -0.00000      -0.00000
     5  H(1)              -0.00000      -0.00000      -0.00000      -0.00000
     6  H(1)              -0.00000      -0.00000      -0.00000      -0.00000
     7  H(1)              -0.00000      -0.00000      -0.00000      -0.00000
     8  H(1)              -0.00000      -0.00000      -0.00000      -0.00000
     9  H(1)              -0.00000      -0.00000      -0.00000      -0.00000
    10  H(1)              -0.00000      -0.00000      -0.00000      -0.00000
    11  H(1)               0.00000       0.00000       0.00000       0.00000
    12  H(1)              -0.00000      -0.00000      -0.00000      -0.00000
 --------------------------------------------------------
       Center         ----  Spin Dipole Couplings  ----
                      3XX-RR        3YY-RR        3ZZ-RR
 --------------------------------------------------------
     1   Atom        0.000000      0.000000      0.000000
     2   Atom        0.000000      0.000000      0.000000
     3   Atom        0.000000      0.000000      0.000000
     4   Atom        0.000000      0.000000      0.000000
     5   Atom        0.000000      0.000000      0.000000
     6   Atom        0.000000      0.000000      0.000000
     7   Atom        0.000000      0.000000      0.000000
     8   Atom        0.000000      0.000000      0.000000
     9   Atom        0.000000      0.000000      0.000000
    10   Atom        0.000000      0.000000      0.000000
    11   Atom        0.000000      0.000000      0.000000
    12   Atom        0.000000      0.000000      0.000000
 --------------------------------------------------------
                        XY            XZ            YZ
 --------------------------------------------------------
     1   Atom        0.000000      0.000000      0.000000
     2   Atom        0.000000      0.000000      0.000000
     3   Atom        0.000000      0.000000      0.000000
     4   Atom        0.000000      0.000000      0.000000
     5   Atom        0.000000      0.000000      0.000000
     6   Atom        0.000000      0.000000      0.000000
     7   Atom        0.000000      0.000000      0.000000
     8   Atom        0.000000      0.000000      0.000000
     9   Atom        0.000000      0.000000      0.000000
    10   Atom        0.000000      0.000000      0.000000
    11   Atom        0.000000      0.000000      0.000000
    12   Atom        0.000000      0.000000      0.000000
 --------------------------------------------------------


 ---------------------------------------------------------------------------------
              Anisotropic Spin Dipole Couplings in Principal Axis System
 ---------------------------------------------------------------------------------

       Atom             a.u.   MegaHertz   Gauss  10(-4) cm-1        Axes

              Baa     0.0000     0.000     0.000     0.000  1.0000  0.0000  0.0000
     1 N(14)  Bbb     0.0000     0.000     0.000     0.000 -0.0000  1.0000  0.0000
              Bcc     0.0000     0.000     0.000     0.000  0.0000  0.0000  1.0000
 
              Baa     0.0000     0.000     0.000     0.000  1.0000  0.0000  0.0000
     2 B(11)  Bbb     0.0000     0.000     0.000     0.000 -0.0000  1.0000  0.0000
              Bcc     0.0000     0.000     0.000     0.000  0.0000  0.0000  1.0000
 
              Baa     0.0000     0.000     0.000     0.000  1.0000  0.0000  0.0000
     3 N(14)  Bbb     0.0000     0.000     0.000     0.000 -0.0000  1.0000  0.0000
              Bcc     0.0000     0.000     0.000     0.000  0.0000  0.0000  1.0000
 
              Baa     0.0000     0.000     0.000     0.000  1.0000  0.0000  0.0000
     4 B(11)  Bbb     0.0000     0.000     0.000     0.000 -0.0000  1.0000  0.0000
              Bcc     0.0000     0.000     0.000     0.000  0.0000  0.0000  1.0000
 
              Baa     0.0000     0.000     0.000     0.000  1.0000  0.0000  0.0000
     5 H(1)   Bbb     0.0000     0.000     0.000     0.000 -0.0000  1.0000  0.0000
              Bcc     0.0000     0.000     0.000     0.000  0.0000  0.0000  1.0000
 
              Baa     0.0000     0.000     0.000     0.000  1.0000  0.0000  0.0000
     6 H(1)   Bbb     0.0000     0.000     0.000     0.000 -0.0000  1.0000  0.0000
              Bcc     0.0000     0.000     0.000     0.000  0.0000  0.0000  1.0000
 
              Baa     0.0000     0.000     0.000     0.000  1.0000  0.0000  0.0000
     7 H(1)   Bbb     0.0000     0.000     0.000     0.000 -0.0000  1.0000  0.0000
              Bcc     0.0000     0.000     0.000     0.000  0.0000  0.0000  1.0000
 
              Baa     0.0000     0.000     0.000     0.000  1.0000  0.0000  0.0000
     8 H(1)   Bbb     0.0000     0.000     0.000     0.000 -0.0000  1.0000  0.0000
              Bcc     0.0000     0.000     0.000     0.000  0.0000  0.0000  1.0000
 
              Baa     0.0000     0.000     0.000     0.000  1.0000  0.0000  0.0000
     9 H(1)   Bbb     0.0000     0.000     0.000     0.000 -0.0000  1.0000  0.0000
              Bcc     0.0000     0.000     0.000     0.000  0.0000  0.0000  1.0000
 
              Baa     0.0000     0.000     0.000     0.000  1.0000  0.0000  0.0000
    10 H(1)   Bbb     0.0000     0.000     0.000     0.000 -0.0000  1.0000  0.0000
              Bcc     0.0000     0.000     0.000     0.000  0.0000  0.0000  1.0000
 
              Baa     0.0000     0.000     0.000     0.000  1.0000  0.0000  0.0000
    11 H(1)   Bbb     0.0000     0.000     0.000     0.000 -0.0000  1.0000  0.0000
              Bcc     0.0000     0.000     0.000     0.000  0.0000  0.0000  1.0000
 
              Baa     0.0000     0.000     0.000     0.000  1.0000  0.0000  0.0000
    12 H(1)   Bbb     0.0000     0.000     0.000     0.000 -0.0000  1.0000  0.0000
              Bcc     0.0000     0.000     0.000     0.000  0.0000  0.0000  1.0000
 

 ---------------------------------------------------------------------------------

 Calling FoFJK, ICntrl=    100147 FMM=F ISym2X=0 I1Cent= 0 IOpClX= 1 NMat=1 NMatS=1 NMatT=0.
 -------------------------------------------------------------------
 Center     Atomic                   Forces (Hartrees/Bohr)
 Number     Number              X              Y              Z
 -------------------------------------------------------------------
      1        7           0.000010303    0.000001735   -0.000005468
      2        5          -0.000017966   -0.000001136    0.000018392
      3        7           0.000042769   -0.000093725   -0.000013531
      4        5          -0.000071649    0.000103079   -0.000009057
      5        1           0.000047224    0.000010337   -0.000023855
      6        1           0.000001467   -0.000002178   -0.000005045
      7        1           0.000025171   -0.000005093    0.000003198
      8        1          -0.000001110    0.000001391    0.000002088
      9        1          -0.000003280    0.000001280   -0.000000118
     10        1          -0.000031613   -0.000028947    0.000025080
     11        1           0.000001401    0.000007685    0.000004710
     12        1          -0.000002717    0.000005571    0.000003608
 -------------------------------------------------------------------
 Cartesian Forces:  Max     0.000103079 RMS     0.000030581
 IRC-IRC-IRC-IRC-IRC-IRC-IRC-IRC-IRC-IRC-IRC-IRC-IRC-IRC-IRC-IRC-IRC-IRC
          ******** Start new reaction path calculation ********
 Supplied step size of   0.0500 bohr.
    Integration on MW PES will use step size of   0.0836 sqrt(amu)*bohr.
 Point Number:   0          Path Number:   1
 Calculating another point on the path.
 IRC-IRC-IRC-IRC-IRC-IRC-IRC-IRC-IRC-IRC-IRC-IRC-IRC-IRC-IRC-IRC-IRC-IRC
                          Input orientation:                          
 ---------------------------------------------------------------------
 Center     Atomic      Atomic             Coordinates (Angstroms)
 Number     Number       Type             X           Y           Z
 ---------------------------------------------------------------------
      1          7           0       -1.649599   -0.569593   -0.035347
      2          5           0       -0.993615    0.687514   -0.090501
      3          7           0        1.649494   -0.569633    0.035482
      4          5           0        0.993855    0.687343    0.090430
      5          1           0        2.514054   -0.706178   -0.461399
      6          1           0       -1.554567    1.684232    0.247970
      7          1           0       -0.164773    0.843602   -0.998619
      8          1           0       -1.262170   -1.416392   -0.420556
      9          1           0       -2.514220   -0.705847    0.461592
     10          1           0        1.261358   -1.416548    0.419613
     11          1           0        0.164215    0.843170    0.997964
     12          1           0        1.554936    1.684069   -0.247669
 ---------------------------------------------------------------------
                    Distance matrix (angstroms):
                    1          2          3          4          5
     1  N    0.000000
     2  B    1.419040   0.000000
     3  N    3.299854   2.929559   0.000000
     4  B    2.929771   1.995688   1.418758   0.000000
     5  H    4.187623   3.792583   1.006478   2.134812   0.000000
     6  H    2.273550   1.192760   3.923145   2.740996   4.771891
     7  H    2.264889   1.239363   2.521541   1.597769   3.141105
     8  H    1.007748   2.146504   3.066392   3.126733   3.842648
     9  H    1.006520   2.135065   4.187678   3.792800   5.112285
    10  H    3.065614   3.126051   1.007706   2.146224   1.688211
    11  H    2.520625   1.596733   2.264606   1.239436   3.170483
    12  H    3.923406   2.740974   2.273387   1.192722   2.584350
                    6          7          8          9         10
     6  H    0.000000
     7  H    2.047479   0.000000
     8  H    3.185325   2.577986   0.000000
     9  H    2.584386   3.170633   1.688398   0.000000
    10  H    4.192104   3.025477   2.659714   3.842115   0.000000
    11  H    2.055259   2.023507   3.025292   3.140249   2.577700
    12  H    3.148756   2.056140   4.192712   4.772084   3.185166
                   11         12
    11  H    0.000000
    12  H    2.047638   0.000000
 Symmetry turned off by external request.
 Stoichiometry    B2H8N2
 Framework group  C1[X(B2H8N2)]
 Deg. of freedom    30
 Full point group                 C1      NOp   1
 Rotational constants (GHZ):          14.5251583           4.1438814           3.3569329
 Standard basis: 6-31G(d,p) (6D, 7F)
   100 basis functions,   168 primitive gaussians,   100 cartesian basis functions
    16 alpha electrons       16 beta electrons
       nuclear repulsion energy       110.7869881547 Hartrees.
 NAtoms=   12 NActive=   12 NUniq=   12 SFac= 1.00D+00 NAtFMM=   60 NAOKFM=F Big=F
 Integral buffers will be    131072 words long.
 Raffenetti 2 integral format.
 Two-electron integral symmetry is turned off.
 One-electron integrals computed using PRISM.
 NBasis=   100 RedAO= T EigKep=  5.73D-03  NBF=   100
 NBsUse=   100 1.00D-06 EigRej= -1.00D+00 NBFU=   100
 Initial guess from the checkpoint file:  "/scratch/1311851/Gau-12494.chk"
 B after Tr=    -0.000043   -0.017139   -0.000030
         Rot=    1.000000    0.000000   -0.000255   -0.000000 Ang=   0.03 deg.
 Initial guess <Sx>= 0.0000 <Sy>= 0.0000 <Sz>= 0.0000 <S**2>=-0.0000 S=-0.0000
 ExpMin= 1.27D-01 ExpMax= 4.17D+03 ExpMxC= 6.27D+02 IAcc=2 IRadAn=         4 AccDes= 0.00D+00
 Harris functional with IExCor=  402 and IRadAn=       4 diagonalized for initial guess.
 HarFok:  IExCor=  402 AccDes= 0.00D+00 IRadAn=         4 IDoV= 1 UseB2=F ITyADJ=14
 ICtDFT=  3500011 ScaDFX=  1.000000  1.000000  1.000000  1.000000
 FoFCou: FMM=F IPFlag=           0 FMFlag=      100000 FMFlg1=           0
         NFxFlg=           0 DoJE=T BraDBF=F KetDBF=T FulRan=T
         wScrn=  0.000000 ICntrl=       500 IOpCl=  0 I1Cent=   200000004 NGrid=           0
         NMat0=    1 NMatS0=      1 NMatT0=    0 NMatD0=    1 NMtDS0=    0 NMtDT0=    0
 Symmetry not used in FoFCou.
 Keep R1 and R2 ints in memory in canonical form, NReq=29209630.
 Requested convergence on RMS density matrix=1.00D-08 within1024 cycles.
 Requested convergence on MAX density matrix=1.00D-06.
 Requested convergence on             energy=1.00D-06.
 No special actions if energy rises.
 Integral accuracy reduced to 1.0D-05 until final iterations.
 Initial convergence to 1.0D-05 achieved.  Increase integral accuracy.
 SCF Done:  E(UB3LYP) =  -164.078253578     A.U. after    9 cycles
            NFock=  9  Conv=0.78D-08     -V/T= 2.0099
 <Sx>= 0.0000 <Sy>= 0.0000 <Sz>= 0.0000 <S**2>=-0.0000 S=-0.0000
 <L.S>= 0.000000000000E+00
 Annihilation of the first spin contaminant:
 S**2 before annihilation    -0.0000,   after     0.0000
 DoSCS=F DFT=T ScalE2(SS,OS)=  1.000000  1.000000
 Range of M.O.s used for correlation:     1   100
 NBasis=   100 NAE=    16 NBE=    16 NFC=     0 NFV=     0
 NROrb=    100 NOA=    16 NOB=    16 NVA=    84 NVB=    84
 Symmetrizing basis deriv contribution to polar:
 IMax=3 JMax=2 DiffMx= 0.00D+00
 Calling FoFJK, ICntrl=      2147 FMM=F ISym2X=0 I1Cent= 0 IOpClX= 1 NMat=1 NMatS=1 NMatT=0.
 -------------------------------------------------------------------
 Center     Atomic                   Forces (Hartrees/Bohr)
 Number     Number              X              Y              Z
 -------------------------------------------------------------------
      1        7          -0.000090828   -0.000041911    0.000027560
      2        5          -0.000409688    0.000053368   -0.000195275
      3        7           0.000143617   -0.000137781   -0.000046605
      4        5           0.000320244    0.000157422    0.000204736
      5        1          -0.000009227   -0.000006288   -0.000036019
      6        1          -0.000004693   -0.000031760    0.000018723
      7        1          -0.000016094    0.000007627   -0.000023315
      8        1          -0.000025067    0.000024232   -0.000013604
      9        1           0.000053326   -0.000015297    0.000012040
     10        1          -0.000007647   -0.000006008    0.000040821
     11        1           0.000042531    0.000020352    0.000031065
     12        1           0.000003526   -0.000023956   -0.000020128
 -------------------------------------------------------------------
 Cartesian Forces:  Max     0.000409688 RMS     0.000111162
 IRC-IRC-IRC-IRC-IRC-IRC-IRC-IRC-IRC-IRC-IRC-IRC-IRC-IRC-IRC-IRC-IRC-IRC
 Pt  1 Step number   1 out of a maximum of  20
 Modified Bulirsch-Stoer Extrapolation Cycles:
    EPS =    0.000010000000000
      PEZero:  N= 2 I= 1 D=  2.18D-04 Err=  1.20D-02
      PEZero:  N= 3 I= 2 D=  2.18D-04 Err=  1.11D-02
      PEZero:  N= 3 I= 1 D=  4.36D-04 Err=  4.79D-03
      PEZero:  N= 4 I= 3 D=  1.09D-04 Err=  3.90D-03
      PEZero:  N= 4 I= 2 D=  3.27D-04 Err=  5.94D-03
      PEZero:  N= 5 I= 4 D=  1.09D-04 Err=  1.83D-04
      PEZero:  N= 5 I= 3 D=  2.18D-04 Err=  3.62D-03
      PEZero:  N= 6 I= 5 D=  5.45D-05 Err=  8.18D-05
      PEZero:  N= 6 I= 4 D=  1.63D-04 Err=  7.36D-05
      PEZero:  N= 6 I= 3 D=  2.72D-04 Err=  2.96D-03
      PEZero:  N= 7 I= 6 D=  5.45D-05 Err=  5.35D-05
      PEZero:  N= 7 I= 5 D=  1.09D-04 Err=  1.57D-06
      PEZero:  N= 7 I= 4 D=  2.18D-04 Err=  3.52D-05
 Maximum DWI energy   std dev =  0.000000591 at pt    10
 Maximum DWI gradient std dev =  0.667067879 at pt     2
 CORRECTOR INTEGRATION CONVERGENCE:
   Recorrection delta-x convergence threshold:    0.010000
   Delta-x Convergence Met
 Point Number:   1          Path Number:   1
   CHANGE IN THE REACTION COORDINATE =    0.08360
   NET REACTION COORDINATE UP TO THIS POINT =    0.08360
  # OF POINTS ALONG THE PATH =   1
  # OF STEPS =   1

 Calculating another point on the path.
 IRC-IRC-IRC-IRC-IRC-IRC-IRC-IRC-IRC-IRC-IRC-IRC-IRC-IRC-IRC-IRC-IRC-IRC
                          Input orientation:                          
 ---------------------------------------------------------------------
 Center     Atomic      Atomic             Coordinates (Angstroms)
 Number     Number       Type             X           Y           Z
 ---------------------------------------------------------------------
      1          7           0       -1.650824   -0.570039   -0.034967
      2          5           0       -1.000104    0.688351   -0.094918
      3          7           0        1.650764   -0.570219    0.034980
      4          5           0        1.000192    0.688244    0.094915
      5          1           0        2.510817   -0.710543   -0.468918
      6          1           0       -1.558813    1.682481    0.254626
      7          1           0       -0.172479    0.845398   -1.000563
      8          1           0       -1.264247   -1.414602   -0.426055
      9          1           0       -2.510919   -0.710236    0.468895
     10          1           0        1.263996   -1.414748    0.425993
     11          1           0        0.172501    0.845365    1.000483
     12          1           0        1.559016    1.682323   -0.254606
 ---------------------------------------------------------------------
                    Distance matrix (angstroms):
                    1          2          3          4          5
     1  N    0.000000
     2  B    1.417947   0.000000
     3  N    3.302329   2.937341   0.000000
     4  B    2.937351   2.009284   1.417944   0.000000
     5  H    4.186563   3.797808   1.006626   2.134596   0.000000
     6  H    2.272922   1.192741   3.927377   2.750004   4.776188
     7  H    2.263038   1.236859   2.529928   1.612429   3.147011
     8  H    1.007808   2.145188   3.069662   3.133856   3.840397
     9  H    1.006626   2.134594   4.186584   3.797829   5.108554
    10  H    3.069559   3.133771   1.007823   2.145175   1.688589
    11  H    2.529830   1.612315   2.263036   1.236856   3.169812
    12  H    3.927397   2.750014   2.272933   1.192746   2.584118
                    6          7          8          9         10
     6  H    0.000000
     7  H    2.048934   0.000000
     8  H    3.184653   2.574804   0.000000
     9  H    2.584088   3.169796   1.688566   0.000000
    10  H    4.194096   3.034268   2.667958   3.840333   0.000000
    11  H    2.062648   2.030566   3.034255   3.146939   2.574783
    12  H    3.159142   2.062758   4.194181   4.776208   3.184666
                   11         12
    11  H    0.000000
    12  H    2.048944   0.000000
 Symmetry turned off by external request.
 Stoichiometry    B2H8N2
 Framework group  C1[X(B2H8N2)]
 Deg. of freedom    30
 Full point group                 C1      NOp   1
 Rotational constants (GHZ):          14.4856114           4.1281587           3.3469418
 Standard basis: 6-31G(d,p) (6D, 7F)
   100 basis functions,   168 primitive gaussians,   100 cartesian basis functions
    16 alpha electrons       16 beta electrons
       nuclear repulsion energy       110.6696691145 Hartrees.
 NAtoms=   12 NActive=   12 NUniq=   12 SFac= 1.00D+00 NAtFMM=   60 NAOKFM=F Big=F
 Integral buffers will be    131072 words long.
 Raffenetti 2 integral format.
 Two-electron integral symmetry is turned off.
 One-electron integrals computed using PRISM.
 NBasis=   100 RedAO= T EigKep=  5.86D-03  NBF=   100
 NBsUse=   100 1.00D-06 EigRej= -1.00D+00 NBFU=   100
 Initial guess from the checkpoint file:  "/scratch/1311851/Gau-12494.chk"
 B after Tr=     0.000035   -0.000189    0.000026
         Rot=    1.000000    0.000015   -0.000236   -0.000001 Ang=   0.03 deg.
 Initial guess <Sx>= 0.0000 <Sy>= 0.0000 <Sz>= 0.0000 <S**2>= 0.0000 S= 0.0000
 ExpMin= 1.27D-01 ExpMax= 4.17D+03 ExpMxC= 6.27D+02 IAcc=2 IRadAn=         4 AccDes= 0.00D+00
 Harris functional with IExCor=  402 and IRadAn=       4 diagonalized for initial guess.
 HarFok:  IExCor=  402 AccDes= 0.00D+00 IRadAn=         4 IDoV= 1 UseB2=F ITyADJ=14
 ICtDFT=  3500011 ScaDFX=  1.000000  1.000000  1.000000  1.000000
 FoFCou: FMM=F IPFlag=           0 FMFlag=      100000 FMFlg1=           0
         NFxFlg=           0 DoJE=T BraDBF=F KetDBF=T FulRan=T
         wScrn=  0.000000 ICntrl=       500 IOpCl=  0 I1Cent=   200000004 NGrid=           0
         NMat0=    1 NMatS0=      1 NMatT0=    0 NMatD0=    1 NMtDS0=    0 NMtDT0=    0
 Symmetry not used in FoFCou.
 Keep R1 and R2 ints in memory in canonical form, NReq=29209630.
 Requested convergence on RMS density matrix=1.00D-08 within1024 cycles.
 Requested convergence on MAX density matrix=1.00D-06.
 Requested convergence on             energy=1.00D-06.
 No special actions if energy rises.
 Integral accuracy reduced to 1.0D-05 until final iterations.
 Initial convergence to 1.0D-05 achieved.  Increase integral accuracy.
 SCF Done:  E(UB3LYP) =  -164.078280719     A.U. after    9 cycles
            NFock=  9  Conv=0.76D-08     -V/T= 2.0099
 <Sx>= 0.0000 <Sy>= 0.0000 <Sz>= 0.0000 <S**2>=-0.0000 S=-0.0000
 <L.S>= 0.000000000000E+00
 Annihilation of the first spin contaminant:
 S**2 before annihilation    -0.0000,   after     0.0000
 DoSCS=F DFT=T ScalE2(SS,OS)=  1.000000  1.000000
 Range of M.O.s used for correlation:     1   100
 NBasis=   100 NAE=    16 NBE=    16 NFC=     0 NFV=     0
 NROrb=    100 NOA=    16 NOB=    16 NVA=    84 NVB=    84
 Symmetrizing basis deriv contribution to polar:
 IMax=3 JMax=2 DiffMx= 0.00D+00
 Calling FoFJK, ICntrl=      2147 FMM=F ISym2X=0 I1Cent= 0 IOpClX= 1 NMat=1 NMatS=1 NMatT=0.
 -------------------------------------------------------------------
 Center     Atomic                   Forces (Hartrees/Bohr)
 Number     Number              X              Y              Z
 -------------------------------------------------------------------
      1        7          -0.000197924   -0.000084059    0.000063460
      2        5          -0.000793134    0.000108557   -0.000435735
      3        7           0.000188240   -0.000089997   -0.000057053
      4        5           0.000795120    0.000107873    0.000428466
      5        1          -0.000100457   -0.000034364   -0.000029448
      6        1          -0.000015309   -0.000056568    0.000048194
      7        1          -0.000081537    0.000025658   -0.000049976
      8        1          -0.000043852    0.000040386   -0.000034115
      9        1           0.000100599   -0.000033761    0.000030634
     10        1           0.000050703    0.000049927    0.000028098
     11        1           0.000084280    0.000025565    0.000054663
     12        1           0.000013271   -0.000059217   -0.000047188
 -------------------------------------------------------------------
 Cartesian Forces:  Max     0.000795120 RMS     0.000224989
 IRC-IRC-IRC-IRC-IRC-IRC-IRC-IRC-IRC-IRC-IRC-IRC-IRC-IRC-IRC-IRC-IRC-IRC
 Pt  2 Step number   1 out of a maximum of  20
 Modified Bulirsch-Stoer Extrapolation Cycles:
    EPS =    0.000010000000000
      PEZero:  N= 2 I= 1 D=  4.36D-04 Err=  2.35D-02
      PEZero:  N= 3 I= 2 D=  4.36D-04 Err=  3.41D-03
      PEZero:  N= 3 I= 1 D=  8.71D-04 Err=  1.84D-02
      PEZero:  N= 4 I= 3 D=  2.18D-04 Err=  2.15D-06
      PEZero:  N= 4 I= 2 D=  6.53D-04 Err=  3.41D-03
 Maximum DWI energy   std dev =  0.000000127 at pt    45
 Maximum DWI gradient std dev =  0.133894210 at pt    73
 CORRECTOR INTEGRATION CONVERGENCE:
   Recorrection delta-x convergence threshold:    0.010000
   Delta-x Convergence Met
 Point Number:   2          Path Number:   1
   CHANGE IN THE REACTION COORDINATE =    0.08361
   NET REACTION COORDINATE UP TO THIS POINT =    0.16721
  # OF POINTS ALONG THE PATH =   2
  # OF STEPS =   1

 Calculating another point on the path.
 IRC-IRC-IRC-IRC-IRC-IRC-IRC-IRC-IRC-IRC-IRC-IRC-IRC-IRC-IRC-IRC-IRC-IRC
                          Input orientation:                          
 ---------------------------------------------------------------------
 Center     Atomic      Atomic             Coordinates (Angstroms)
 Number     Number       Type             X           Y           Z
 ---------------------------------------------------------------------
      1          7           0       -1.652040   -0.570517   -0.034579
      2          5           0       -1.006638    0.689179   -0.099270
      3          7           0        1.651978   -0.570696    0.034594
      4          5           0        1.006721    0.689069    0.099261
      5          1           0        2.507457   -0.714849   -0.476093
      6          1           0       -1.563036    1.680555    0.261460
      7          1           0       -0.180726    0.847503   -1.002897
      8          1           0       -1.266526   -1.412887   -0.431513
      9          1           0       -2.507549   -0.714561    0.476091
     10          1           0        1.266299   -1.413040    0.431406
     11          1           0        0.180810    0.847480    1.002878
     12          1           0        1.563234    1.680382   -0.261451
 ---------------------------------------------------------------------
                    Distance matrix (angstroms):
                    1          2          3          4          5
     1  N    0.000000
     2  B    1.416885   0.000000
     3  N    3.304743   2.945072   0.000000
     4  B    2.945078   2.023124   1.416879   0.000000
     5  H    4.185354   3.802914   1.006690   2.134063   0.000000
     6  H    2.272199   1.192699   3.931402   2.759167   4.780257
     7  H    2.261236   1.234399   2.538993   1.627847   3.153537
     8  H    1.007852   2.143970   3.073143   3.141272   3.838254
     9  H    1.006691   2.134070   4.185365   3.802929   5.104599
    10  H    3.073059   3.141207   1.007844   2.143959   1.688638
    11  H    2.538970   1.627827   2.261224   1.234401   3.168835
    12  H    3.931413   2.759172   2.272195   1.192695   2.583556
                    6          7          8          9         10
     6  H    0.000000
     7  H    2.050208   0.000000
     8  H    3.183947   2.571927   0.000000
     9  H    2.583554   3.168841   1.688651   0.000000
    10  H    4.195753   3.043215   2.675786   3.838202   0.000000
    11  H    2.069955   2.038097   3.043274   3.153529   2.571928
    12  H    3.169700   2.069982   4.195805   4.780271   3.183941
                   11         12
    11  H    0.000000
    12  H    2.050207   0.000000
 Symmetry turned off by external request.
 Stoichiometry    B2H8N2
 Framework group  C1[X(B2H8N2)]
 Deg. of freedom    30
 Full point group                 C1      NOp   1
 Rotational constants (GHZ):          14.4473690           4.1124137           3.3369858
 Standard basis: 6-31G(d,p) (6D, 7F)
   100 basis functions,   168 primitive gaussians,   100 cartesian basis functions
    16 alpha electrons       16 beta electrons
       nuclear repulsion energy       110.5556771935 Hartrees.
 NAtoms=   12 NActive=   12 NUniq=   12 SFac= 1.00D+00 NAtFMM=   60 NAOKFM=F Big=F
 Integral buffers will be    131072 words long.
 Raffenetti 2 integral format.
 Two-electron integral symmetry is turned off.
 One-electron integrals computed using PRISM.
 NBasis=   100 RedAO= T EigKep=  5.99D-03  NBF=   100
 NBsUse=   100 1.00D-06 EigRej= -1.00D+00 NBFU=   100
 Initial guess from the checkpoint file:  "/scratch/1311851/Gau-12494.chk"
 B after Tr=     0.000003   -0.000194    0.000001
         Rot=    1.000000   -0.000001   -0.000240   -0.000000 Ang=  -0.03 deg.
 Initial guess <Sx>= 0.0000 <Sy>= 0.0000 <Sz>= 0.0000 <S**2>=-0.0000 S=-0.0000
 ExpMin= 1.27D-01 ExpMax= 4.17D+03 ExpMxC= 6.27D+02 IAcc=2 IRadAn=         4 AccDes= 0.00D+00
 Harris functional with IExCor=  402 and IRadAn=       4 diagonalized for initial guess.
 HarFok:  IExCor=  402 AccDes= 0.00D+00 IRadAn=         4 IDoV= 1 UseB2=F ITyADJ=14
 ICtDFT=  3500011 ScaDFX=  1.000000  1.000000  1.000000  1.000000
 FoFCou: FMM=F IPFlag=           0 FMFlag=      100000 FMFlg1=           0
         NFxFlg=           0 DoJE=T BraDBF=F KetDBF=T FulRan=T
         wScrn=  0.000000 ICntrl=       500 IOpCl=  0 I1Cent=   200000004 NGrid=           0
         NMat0=    1 NMatS0=      1 NMatT0=    0 NMatD0=    1 NMtDS0=    0 NMtDT0=    0
 Symmetry not used in FoFCou.
 Keep R1 and R2 ints in memory in canonical form, NReq=29209630.
 Requested convergence on RMS density matrix=1.00D-08 within1024 cycles.
 Requested convergence on MAX density matrix=1.00D-06.
 Requested convergence on             energy=1.00D-06.
 No special actions if energy rises.
 Integral accuracy reduced to 1.0D-05 until final iterations.
 Initial convergence to 1.0D-05 achieved.  Increase integral accuracy.
 SCF Done:  E(UB3LYP) =  -164.078328507     A.U. after    9 cycles
            NFock=  9  Conv=0.80D-08     -V/T= 2.0099
 <Sx>= 0.0000 <Sy>= 0.0000 <Sz>= 0.0000 <S**2>=-0.0000 S=-0.0000
 <L.S>= 0.000000000000E+00
 Annihilation of the first spin contaminant:
 S**2 before annihilation    -0.0000,   after     0.0000
 DoSCS=F DFT=T ScalE2(SS,OS)=  1.000000  1.000000
 Range of M.O.s used for correlation:     1   100
 NBasis=   100 NAE=    16 NBE=    16 NFC=     0 NFV=     0
 NROrb=    100 NOA=    16 NOB=    16 NVA=    84 NVB=    84
 Symmetrizing basis deriv contribution to polar:
 IMax=3 JMax=2 DiffMx= 0.00D+00
 Calling FoFJK, ICntrl=      2147 FMM=F ISym2X=0 I1Cent= 0 IOpClX= 1 NMat=1 NMatS=1 NMatT=0.
 -------------------------------------------------------------------
 Center     Atomic                   Forces (Hartrees/Bohr)
 Number     Number              X              Y              Z
 -------------------------------------------------------------------
      1        7          -0.000293011   -0.000125144    0.000095179
      2        5          -0.001212204    0.000164896   -0.000701438
      3        7           0.000297298   -0.000122301   -0.000100479
      4        5           0.001209860    0.000164930    0.000704890
      5        1          -0.000117077   -0.000057651   -0.000071068
      6        1          -0.000038377   -0.000069610    0.000084799
      7        1          -0.000128648    0.000038501   -0.000066325
      8        1          -0.000056635    0.000049906   -0.000064050
      9        1           0.000117715   -0.000058142    0.000070291
     10        1           0.000053524    0.000044506    0.000068538
     11        1           0.000128455    0.000038678    0.000065157
     12        1           0.000039100   -0.000068569   -0.000085493
 -------------------------------------------------------------------
 Cartesian Forces:  Max     0.001212204 RMS     0.000347044
 IRC-IRC-IRC-IRC-IRC-IRC-IRC-IRC-IRC-IRC-IRC-IRC-IRC-IRC-IRC-IRC-IRC-IRC
 Pt  3 Step number   1 out of a maximum of  20
 Modified Bulirsch-Stoer Extrapolation Cycles:
    EPS =    0.000010000000000
      PEZero:  N= 2 I= 1 D=  4.36D-04 Err=  2.06D-06
 Maximum DWI energy   std dev =  0.000000105 at pt    45
 Maximum DWI gradient std dev =  0.074247012 at pt    28
 CORRECTOR INTEGRATION CONVERGENCE:
   Recorrection delta-x convergence threshold:    0.010000
   Delta-x Convergence Met
 Point Number:   3          Path Number:   1
   CHANGE IN THE REACTION COORDINATE =    0.08362
   NET REACTION COORDINATE UP TO THIS POINT =    0.25084
  # OF POINTS ALONG THE PATH =   3
  # OF STEPS =   1

 Calculating another point on the path.
 IRC-IRC-IRC-IRC-IRC-IRC-IRC-IRC-IRC-IRC-IRC-IRC-IRC-IRC-IRC-IRC-IRC-IRC
                          Input orientation:                          
 ---------------------------------------------------------------------
 Center     Atomic      Atomic             Coordinates (Angstroms)
 Number     Number       Type             X           Y           Z
 ---------------------------------------------------------------------
      1          7           0       -1.653245   -0.571003   -0.034188
      2          5           0       -1.013245    0.690014   -0.103570
      3          7           0        1.653183   -0.571185    0.034195
      4          5           0        1.013325    0.689903    0.103566
      5          1           0        2.504156   -0.719103   -0.483016
      6          1           0       -1.567290    1.678581    0.268154
      7          1           0       -0.189069    0.849679   -1.005320
      8          1           0       -1.268781   -1.411222   -0.436755
      9          1           0       -2.504248   -0.718812    0.483005
     10          1           0        1.268589   -1.411365    0.436728
     11          1           0        0.189160    0.849659    1.005310
     12          1           0        1.567483    1.678408   -0.268155
 ---------------------------------------------------------------------
                    Distance matrix (angstroms):
                    1          2          3          4          5
     1  N    0.000000
     2  B    1.415831   0.000000
     3  N    3.307135   2.952870   0.000000
     4  B    2.952873   2.037129   1.415830   0.000000
     5  H    4.184181   3.808110   1.006749   2.133531   0.000000
     6  H    2.271437   1.192648   3.935433   2.768420   4.784331
     7  H    2.259479   1.232036   2.548203   1.643444   3.160275
     8  H    1.007889   2.142779   3.076577   3.148759   3.836173
     9  H    1.006748   2.133530   4.184191   3.808119   5.100716
    10  H    3.076538   3.148727   1.007892   2.142775   1.688722
    11  H    2.548195   1.643436   2.259475   1.232036   3.167860
    12  H    3.935439   2.768424   2.271438   1.192648   2.582940
                    6          7          8          9         10
     6  H    0.000000
     7  H    2.051416   0.000000
     8  H    3.183220   2.569185   0.000000
     9  H    2.582933   3.167858   1.688718   0.000000
    10  H    4.197427   3.052308   2.683508   3.836152   0.000000
    11  H    2.077409   2.045897   3.052332   3.160277   2.569179
    12  H    3.180319   2.077422   4.197456   4.784339   3.183221
                   11         12
    11  H    0.000000
    12  H    2.051417   0.000000
 Symmetry turned off by external request.
 Stoichiometry    B2H8N2
 Framework group  C1[X(B2H8N2)]
 Deg. of freedom    30
 Full point group                 C1      NOp   1
 Rotational constants (GHZ):          14.4088855           4.0965906           3.3269502
 Standard basis: 6-31G(d,p) (6D, 7F)
   100 basis functions,   168 primitive gaussians,   100 cartesian basis functions
    16 alpha electrons       16 beta electrons
       nuclear repulsion energy       110.4412941007 Hartrees.
 NAtoms=   12 NActive=   12 NUniq=   12 SFac= 1.00D+00 NAtFMM=   60 NAOKFM=F Big=F
 Integral buffers will be    131072 words long.
 Raffenetti 2 integral format.
 Two-electron integral symmetry is turned off.
 One-electron integrals computed using PRISM.
 NBasis=   100 RedAO= T EigKep=  6.11D-03  NBF=   100
 NBsUse=   100 1.00D-06 EigRej= -1.00D+00 NBFU=   100
 Initial guess from the checkpoint file:  "/scratch/1311851/Gau-12494.chk"
 B after Tr=     0.000001   -0.000191    0.000002
         Rot=    1.000000    0.000001   -0.000235   -0.000000 Ang=   0.03 deg.
 Initial guess <Sx>= 0.0000 <Sy>= 0.0000 <Sz>= 0.0000 <S**2>=-0.0000 S=-0.0000
 ExpMin= 1.27D-01 ExpMax= 4.17D+03 ExpMxC= 6.27D+02 IAcc=2 IRadAn=         4 AccDes= 0.00D+00
 Harris functional with IExCor=  402 and IRadAn=       4 diagonalized for initial guess.
 HarFok:  IExCor=  402 AccDes= 0.00D+00 IRadAn=         4 IDoV= 1 UseB2=F ITyADJ=14
 ICtDFT=  3500011 ScaDFX=  1.000000  1.000000  1.000000  1.000000
 FoFCou: FMM=F IPFlag=           0 FMFlag=      100000 FMFlg1=           0
         NFxFlg=           0 DoJE=T BraDBF=F KetDBF=T FulRan=T
         wScrn=  0.000000 ICntrl=       500 IOpCl=  0 I1Cent=   200000004 NGrid=           0
         NMat0=    1 NMatS0=      1 NMatT0=    0 NMatD0=    1 NMtDS0=    0 NMtDT0=    0
 Symmetry not used in FoFCou.
 Keep R1 and R2 ints in memory in canonical form, NReq=29209630.
 Requested convergence on RMS density matrix=1.00D-08 within1024 cycles.
 Requested convergence on MAX density matrix=1.00D-06.
 Requested convergence on             energy=1.00D-06.
 No special actions if energy rises.
 Integral accuracy reduced to 1.0D-05 until final iterations.
 Initial convergence to 1.0D-05 achieved.  Increase integral accuracy.
 SCF Done:  E(UB3LYP) =  -164.078397955     A.U. after    9 cycles
            NFock=  9  Conv=0.81D-08     -V/T= 2.0099
 <Sx>= 0.0000 <Sy>= 0.0000 <Sz>= 0.0000 <S**2>=-0.0000 S=-0.0000
 <L.S>= 0.000000000000E+00
 Annihilation of the first spin contaminant:
 S**2 before annihilation    -0.0000,   after     0.0000
 DoSCS=F DFT=T ScalE2(SS,OS)=  1.000000  1.000000
 Range of M.O.s used for correlation:     1   100
 NBasis=   100 NAE=    16 NBE=    16 NFC=     0 NFV=     0
 NROrb=    100 NOA=    16 NOB=    16 NVA=    84 NVB=    84
 Symmetrizing basis deriv contribution to polar:
 IMax=3 JMax=2 DiffMx= 0.00D+00
 Calling FoFJK, ICntrl=      2147 FMM=F ISym2X=0 I1Cent= 0 IOpClX= 1 NMat=1 NMatS=1 NMatT=0.
 -------------------------------------------------------------------
 Center     Atomic                   Forces (Hartrees/Bohr)
 Number     Number              X              Y              Z
 -------------------------------------------------------------------
      1        7          -0.000390122   -0.000165808    0.000127362
      2        5          -0.001652112    0.000220341   -0.000979708
      3        7           0.000388997   -0.000167780   -0.000127008
      4        5           0.001652232    0.000220025    0.000979938
      5        1          -0.000129814   -0.000083500   -0.000112472
      6        1          -0.000066728   -0.000079513    0.000124537
      7        1          -0.000177937    0.000052537   -0.000079856
      8        1          -0.000067241    0.000056211   -0.000095532
      9        1           0.000129495   -0.000083411    0.000112822
     10        1           0.000068769    0.000057990    0.000094674
     11        1           0.000177894    0.000052559    0.000079820
     12        1           0.000066566   -0.000079650   -0.000124578
 -------------------------------------------------------------------
 Cartesian Forces:  Max     0.001652232 RMS     0.000474601
 IRC-IRC-IRC-IRC-IRC-IRC-IRC-IRC-IRC-IRC-IRC-IRC-IRC-IRC-IRC-IRC-IRC-IRC
 Pt  4 Step number   1 out of a maximum of  20
 Modified Bulirsch-Stoer Extrapolation Cycles:
    EPS =    0.000010000000000
      PEZero:  N= 2 I= 1 D=  4.36D-04 Err=  1.83D-06
 Maximum DWI energy   std dev =  0.000000075 at pt    45
 Maximum DWI gradient std dev =  0.048258094 at pt    28
 CORRECTOR INTEGRATION CONVERGENCE:
   Recorrection delta-x convergence threshold:    0.010000
   Delta-x Convergence Met
 Point Number:   4          Path Number:   1
   CHANGE IN THE REACTION COORDINATE =    0.08363
   NET REACTION COORDINATE UP TO THIS POINT =    0.33446
  # OF POINTS ALONG THE PATH =   4
  # OF STEPS =   1

 Calculating another point on the path.
 IRC-IRC-IRC-IRC-IRC-IRC-IRC-IRC-IRC-IRC-IRC-IRC-IRC-IRC-IRC-IRC-IRC-IRC
                          Input orientation:                          
 ---------------------------------------------------------------------
 Center     Atomic      Atomic             Coordinates (Angstroms)
 Number     Number       Type             X           Y           Z
 ---------------------------------------------------------------------
      1          7           0       -1.654446   -0.571495   -0.033801
      2          5           0       -1.019917    0.690854   -0.107825
      3          7           0        1.654383   -0.571678    0.033809
      4          5           0        1.019997    0.690742    0.107821
      5          1           0        2.500897   -0.723296   -0.489732
      6          1           0       -1.571582    1.676562    0.274736
      7          1           0       -0.197479    0.851920   -1.007807
      8          1           0       -1.271029   -1.409598   -0.441840
      9          1           0       -2.500985   -0.723010    0.489728
     10          1           0        1.270845   -1.409743    0.441807
     11          1           0        0.197569    0.851901    1.007796
     12          1           0        1.571774    1.676387   -0.274738
 ---------------------------------------------------------------------
                    Distance matrix (angstroms):
                    1          2          3          4          5
     1  N    0.000000
     2  B    1.414791   0.000000
     3  N    3.309520   2.960731   0.000000
     4  B    2.960733   2.051280   1.414789   0.000000
     5  H    4.183036   3.813372   1.006811   2.132988   0.000000
     6  H    2.270643   1.192605   3.939477   2.777766   4.788404
     7  H    2.257776   1.229762   2.557536   1.659172   3.167166
     8  H    1.007929   2.141617   3.079998   3.156320   3.834153
     9  H    1.006811   2.132990   4.183043   3.813379   5.096878
    10  H    3.079965   3.156294   1.007927   2.141613   1.688788
    11  H    2.557526   1.659162   2.257773   1.229762   3.166884
    12  H    3.939482   2.777768   2.270644   1.192605   2.582242
                    6          7          8          9         10
     6  H    0.000000
     7  H    2.052586   0.000000
     8  H    3.182483   2.566572   0.000000
     9  H    2.582238   3.166884   1.688791   0.000000
    10  H    4.199116   3.061450   2.691088   3.834136   0.000000
    11  H    2.085027   2.053952   3.061470   3.167164   2.566573
    12  H    3.191020   2.085040   4.199137   4.788411   3.182482
                   11         12
    11  H    0.000000
    12  H    2.052586   0.000000
 Symmetry turned off by external request.
 Stoichiometry    B2H8N2
 Framework group  C1[X(B2H8N2)]
 Deg. of freedom    30
 Full point group                 C1      NOp   1
 Rotational constants (GHZ):          14.3702687           4.0806878           3.3168391
 Standard basis: 6-31G(d,p) (6D, 7F)
   100 basis functions,   168 primitive gaussians,   100 cartesian basis functions
    16 alpha electrons       16 beta electrons
       nuclear repulsion energy       110.3266775142 Hartrees.
 NAtoms=   12 NActive=   12 NUniq=   12 SFac= 1.00D+00 NAtFMM=   60 NAOKFM=F Big=F
 Integral buffers will be    131072 words long.
 Raffenetti 2 integral format.
 Two-electron integral symmetry is turned off.
 One-electron integrals computed using PRISM.
 NBasis=   100 RedAO= T EigKep=  6.23D-03  NBF=   100
 NBsUse=   100 1.00D-06 EigRej= -1.00D+00 NBFU=   100
 Initial guess from the checkpoint file:  "/scratch/1311851/Gau-12494.chk"
 B after Tr=     0.000000   -0.000189   -0.000000
         Rot=    1.000000   -0.000000   -0.000231   -0.000000 Ang=  -0.03 deg.
 Initial guess <Sx>= 0.0000 <Sy>= 0.0000 <Sz>= 0.0000 <S**2>=-0.0000 S=-0.0000
 ExpMin= 1.27D-01 ExpMax= 4.17D+03 ExpMxC= 6.27D+02 IAcc=2 IRadAn=         4 AccDes= 0.00D+00
 Harris functional with IExCor=  402 and IRadAn=       4 diagonalized for initial guess.
 HarFok:  IExCor=  402 AccDes= 0.00D+00 IRadAn=         4 IDoV= 1 UseB2=F ITyADJ=14
 ICtDFT=  3500011 ScaDFX=  1.000000  1.000000  1.000000  1.000000
 FoFCou: FMM=F IPFlag=           0 FMFlag=      100000 FMFlg1=           0
         NFxFlg=           0 DoJE=T BraDBF=F KetDBF=T FulRan=T
         wScrn=  0.000000 ICntrl=       500 IOpCl=  0 I1Cent=   200000004 NGrid=           0
         NMat0=    1 NMatS0=      1 NMatT0=    0 NMatD0=    1 NMtDS0=    0 NMtDT0=    0
 Symmetry not used in FoFCou.
 Keep R1 and R2 ints in memory in canonical form, NReq=29209630.
 Requested convergence on RMS density matrix=1.00D-08 within1024 cycles.
 Requested convergence on MAX density matrix=1.00D-06.
 Requested convergence on             energy=1.00D-06.
 No special actions if energy rises.
 Integral accuracy reduced to 1.0D-05 until final iterations.
 Initial convergence to 1.0D-05 achieved.  Increase integral accuracy.
 SCF Done:  E(UB3LYP) =  -164.078489722     A.U. after    9 cycles
            NFock=  9  Conv=0.81D-08     -V/T= 2.0099
 <Sx>= 0.0000 <Sy>= 0.0000 <Sz>= 0.0000 <S**2>=-0.0000 S=-0.0000
 <L.S>= 0.000000000000E+00
 Annihilation of the first spin contaminant:
 S**2 before annihilation    -0.0000,   after     0.0000
 DoSCS=F DFT=T ScalE2(SS,OS)=  1.000000  1.000000
 Range of M.O.s used for correlation:     1   100
 NBasis=   100 NAE=    16 NBE=    16 NFC=     0 NFV=     0
 NROrb=    100 NOA=    16 NOB=    16 NVA=    84 NVB=    84
 Symmetrizing basis deriv contribution to polar:
 IMax=3 JMax=2 DiffMx= 0.00D+00
 Calling FoFJK, ICntrl=      2147 FMM=F ISym2X=0 I1Cent= 0 IOpClX= 1 NMat=1 NMatS=1 NMatT=0.
 -------------------------------------------------------------------
 Center     Atomic                   Forces (Hartrees/Bohr)
 Number     Number              X              Y              Z
 -------------------------------------------------------------------
      1        7          -0.000492000   -0.000210626    0.000159775
      2        5          -0.002112145    0.000278806   -0.001255109
      3        7           0.000492671   -0.000209711   -0.000161157
      4        5           0.002111795    0.000278365    0.001255586
      5        1          -0.000145373   -0.000107899   -0.000150830
      6        1          -0.000095328   -0.000091428    0.000162857
      7        1          -0.000229322    0.000067822   -0.000095062
      8        1          -0.000079323    0.000063820   -0.000124071
      9        1           0.000145614   -0.000108081    0.000150692
     10        1           0.000078662    0.000062499    0.000125279
     11        1           0.000229330    0.000067785    0.000094987
     12        1           0.000095419   -0.000091353   -0.000162946
 -------------------------------------------------------------------
 Cartesian Forces:  Max     0.002112145 RMS     0.000606345
 IRC-IRC-IRC-IRC-IRC-IRC-IRC-IRC-IRC-IRC-IRC-IRC-IRC-IRC-IRC-IRC-IRC-IRC
 Pt  5 Step number   1 out of a maximum of  20
 Modified Bulirsch-Stoer Extrapolation Cycles:
    EPS =    0.000010000000000
      PEZero:  N= 2 I= 1 D=  4.36D-04 Err=  1.82D-06
 Maximum DWI energy   std dev =  0.000000050 at pt    44
 Maximum DWI gradient std dev =  0.035037527 at pt    38
 CORRECTOR INTEGRATION CONVERGENCE:
   Recorrection delta-x convergence threshold:    0.010000
   Delta-x Convergence Met
 Point Number:   5          Path Number:   1
   CHANGE IN THE REACTION COORDINATE =    0.08363
   NET REACTION COORDINATE UP TO THIS POINT =    0.41809
  # OF POINTS ALONG THE PATH =   5
  # OF STEPS =   1

 Calculating another point on the path.
 IRC-IRC-IRC-IRC-IRC-IRC-IRC-IRC-IRC-IRC-IRC-IRC-IRC-IRC-IRC-IRC-IRC-IRC
                          Input orientation:                          
 ---------------------------------------------------------------------
 Center     Atomic      Atomic             Coordinates (Angstroms)
 Number     Number       Type             X           Y           Z
 ---------------------------------------------------------------------
      1          7           0       -1.655643   -0.571994   -0.033420
      2          5           0       -1.026652    0.691700   -0.112032
      3          7           0        1.655580   -0.572178    0.033425
      4          5           0        1.026731    0.691587    0.112029
      5          1           0        2.497681   -0.727437   -0.496245
      6          1           0       -1.575916    1.674500    0.281194
      7          1           0       -0.205939    0.854227   -1.010346
      8          1           0       -1.273265   -1.408016   -0.446761
      9          1           0       -2.497769   -0.727151    0.496241
     10          1           0        1.273087   -1.408159    0.446745
     11          1           0        0.206030    0.854207    1.010336
     12          1           0        1.576106    1.674325   -0.281196
 ---------------------------------------------------------------------
                    Distance matrix (angstroms):
                    1          2          3          4          5
     1  N    0.000000
     2  B    1.413766   0.000000
     3  N    3.311898   2.968655   0.000000
     4  B    2.968657   2.065571   1.413765   0.000000
     5  H    4.181922   3.818703   1.006872   2.132445   0.000000
     6  H    2.269818   1.192565   3.943541   2.787204   4.792484
     7  H    2.256133   1.227580   2.566972   1.675008   3.174197
     8  H    1.007966   2.140484   3.083396   3.163947   3.832189
     9  H    1.006871   2.132445   4.181928   3.818709   5.093088
    10  H    3.083373   3.163928   1.007967   2.140481   1.688859
    11  H    2.566964   1.674999   2.256131   1.227580   3.165920
    12  H    3.943545   2.787206   2.269819   1.192565   2.581474
                    6          7          8          9         10
     6  H    0.000000
     7  H    2.053718   0.000000
     8  H    3.181733   2.564090   0.000000
     9  H    2.581470   3.165919   1.688858   0.000000
    10  H    4.200835   3.070672   2.698566   3.832176   0.000000
    11  H    2.092811   2.062250   3.070683   3.174195   2.564088
    12  H    3.201800   2.092823   4.200851   4.792489   3.181733
                   11         12
    11  H    0.000000
    12  H    2.053718   0.000000
 Symmetry turned off by external request.
 Stoichiometry    B2H8N2
 Framework group  C1[X(B2H8N2)]
 Deg. of freedom    30
 Full point group                 C1      NOp   1
 Rotational constants (GHZ):          14.3314929           4.0647075           3.3066505
 Standard basis: 6-31G(d,p) (6D, 7F)
   100 basis functions,   168 primitive gaussians,   100 cartesian basis functions
    16 alpha electrons       16 beta electrons
       nuclear repulsion energy       110.2117469313 Hartrees.
 NAtoms=   12 NActive=   12 NUniq=   12 SFac= 1.00D+00 NAtFMM=   60 NAOKFM=F Big=F
 Integral buffers will be    131072 words long.
 Raffenetti 2 integral format.
 Two-electron integral symmetry is turned off.
 One-electron integrals computed using PRISM.
 NBasis=   100 RedAO= T EigKep=  6.35D-03  NBF=   100
 NBsUse=   100 1.00D-06 EigRej= -1.00D+00 NBFU=   100
 Initial guess from the checkpoint file:  "/scratch/1311851/Gau-12494.chk"
 B after Tr=     0.000000   -0.000187    0.000001
         Rot=    1.000000    0.000000   -0.000226   -0.000000 Ang=   0.03 deg.
 Initial guess <Sx>= 0.0000 <Sy>= 0.0000 <Sz>= 0.0000 <S**2>=-0.0000 S=-0.0000
 ExpMin= 1.27D-01 ExpMax= 4.17D+03 ExpMxC= 6.27D+02 IAcc=2 IRadAn=         4 AccDes= 0.00D+00
 Harris functional with IExCor=  402 and IRadAn=       4 diagonalized for initial guess.
 HarFok:  IExCor=  402 AccDes= 0.00D+00 IRadAn=         4 IDoV= 1 UseB2=F ITyADJ=14
 ICtDFT=  3500011 ScaDFX=  1.000000  1.000000  1.000000  1.000000
 FoFCou: FMM=F IPFlag=           0 FMFlag=      100000 FMFlg1=           0
         NFxFlg=           0 DoJE=T BraDBF=F KetDBF=T FulRan=T
         wScrn=  0.000000 ICntrl=       500 IOpCl=  0 I1Cent=   200000004 NGrid=           0
         NMat0=    1 NMatS0=      1 NMatT0=    0 NMatD0=    1 NMtDS0=    0 NMtDT0=    0
 Symmetry not used in FoFCou.
 Keep R1 and R2 ints in memory in canonical form, NReq=29209630.
 Requested convergence on RMS density matrix=1.00D-08 within1024 cycles.
 Requested convergence on MAX density matrix=1.00D-06.
 Requested convergence on             energy=1.00D-06.
 No special actions if energy rises.
 Integral accuracy reduced to 1.0D-05 until final iterations.
 Initial convergence to 1.0D-05 achieved.  Increase integral accuracy.
 SCF Done:  E(UB3LYP) =  -164.078604132     A.U. after    9 cycles
            NFock=  9  Conv=0.81D-08     -V/T= 2.0098
 <Sx>= 0.0000 <Sy>= 0.0000 <Sz>= 0.0000 <S**2>=-0.0000 S=-0.0000
 <L.S>= 0.000000000000E+00
 Annihilation of the first spin contaminant:
 S**2 before annihilation    -0.0000,   after     0.0000
 DoSCS=F DFT=T ScalE2(SS,OS)=  1.000000  1.000000
 Range of M.O.s used for correlation:     1   100
 NBasis=   100 NAE=    16 NBE=    16 NFC=     0 NFV=     0
 NROrb=    100 NOA=    16 NOB=    16 NVA=    84 NVB=    84
 Symmetrizing basis deriv contribution to polar:
 IMax=3 JMax=2 DiffMx= 0.00D+00
 Calling FoFJK, ICntrl=      2147 FMM=F ISym2X=0 I1Cent= 0 IOpClX= 1 NMat=1 NMatS=1 NMatT=0.
 -------------------------------------------------------------------
 Center     Atomic                   Forces (Hartrees/Bohr)
 Number     Number              X              Y              Z
 -------------------------------------------------------------------
      1        7          -0.000593364   -0.000255799    0.000189699
      2        5          -0.002583113    0.000337879   -0.001525508
      3        7           0.000592922   -0.000256407   -0.000189769
      4        5           0.002583089    0.000337454    0.001525519
      5        1          -0.000159858   -0.000132632   -0.000187810
      6        1          -0.000124933   -0.000103476    0.000199987
      7        1          -0.000281923    0.000083876   -0.000110898
      8        1          -0.000090892    0.000070484   -0.000151305
      9        1           0.000159822   -0.000132647    0.000187954
     10        1           0.000091371    0.000070949    0.000151159
     11        1           0.000282015    0.000083841    0.000110984
     12        1           0.000124863   -0.000103521   -0.000200013
 -------------------------------------------------------------------
 Cartesian Forces:  Max     0.002583113 RMS     0.000739625
 IRC-IRC-IRC-IRC-IRC-IRC-IRC-IRC-IRC-IRC-IRC-IRC-IRC-IRC-IRC-IRC-IRC-IRC
 Pt  6 Step number   1 out of a maximum of  20
 Modified Bulirsch-Stoer Extrapolation Cycles:
    EPS =    0.000010000000000
      PEZero:  N= 2 I= 1 D=  4.36D-04 Err=  1.63D-06
 Maximum DWI energy   std dev =  0.000000029 at pt    40
 Maximum DWI gradient std dev =  0.026776628 at pt    38
 CORRECTOR INTEGRATION CONVERGENCE:
   Recorrection delta-x convergence threshold:    0.010000
   Delta-x Convergence Met
 Point Number:   6          Path Number:   1
   CHANGE IN THE REACTION COORDINATE =    0.08363
   NET REACTION COORDINATE UP TO THIS POINT =    0.50172
  # OF POINTS ALONG THE PATH =   6
  # OF STEPS =   1

 Calculating another point on the path.
 IRC-IRC-IRC-IRC-IRC-IRC-IRC-IRC-IRC-IRC-IRC-IRC-IRC-IRC-IRC-IRC-IRC-IRC
                          Input orientation:                          
 ---------------------------------------------------------------------
 Center     Atomic      Atomic             Coordinates (Angstroms)
 Number     Number       Type             X           Y           Z
 ---------------------------------------------------------------------
      1          7           0       -1.656840   -0.572501   -0.033046
      2          5           0       -1.033446    0.692553   -0.116189
      3          7           0        1.656776   -0.572685    0.033051
      4          5           0        1.033525    0.692438    0.116186
      5          1           0        2.494501   -0.731531   -0.502581
      6          1           0       -1.580292    1.672401    0.287524
      7          1           0       -0.214443    0.856597   -1.012934
      8          1           0       -1.275485   -1.406475   -0.451530
      9          1           0       -2.494587   -0.731247    0.502580
     10          1           0        1.275312   -1.406618    0.451514
     11          1           0        0.214535    0.856576    1.012925
     12          1           0        1.580483    1.672225   -0.287527
 ---------------------------------------------------------------------
                    Distance matrix (angstroms):
                    1          2          3          4          5
     1  N    0.000000
     2  B    1.412760   0.000000
     3  N    3.314275   2.976642   0.000000
     4  B    2.976643   2.079993   1.412760   0.000000
     5  H    4.180835   3.824097   1.006934   2.131903   0.000000
     6  H    2.268967   1.192531   3.947630   2.796735   4.796571
     7  H    2.254553   1.225491   2.576508   1.690942   3.181350
     8  H    1.008004   2.139381   3.086776   3.171635   3.830267
     9  H    1.006934   2.131903   4.180839   3.824102   5.089336
    10  H    3.086756   3.171619   1.008003   2.139379   1.688923
    11  H    2.576501   1.690934   2.254551   1.225491   3.164978
    12  H    3.947633   2.796737   2.268967   1.192530   2.580643
                    6          7          8          9         10
     6  H    0.000000
     7  H    2.054817   0.000000
     8  H    3.180972   2.561734   0.000000
     9  H    2.580641   3.164978   1.688924   0.000000
[...]
 One-electron integrals computed using PRISM.
 NBasis=   100 RedAO= T EigKep=  1.00D-02  NBF=   100
 NBsUse=   100 1.00D-06 EigRej= -1.00D+00 NBFU=   100
 Initial guess from the checkpoint file:  "/scratch/1311851/Gau-12494.chk"
 B after Tr=    -0.000159   -0.000101   -0.000424
         Rot=    1.000000   -0.000182   -0.000067    0.000036 Ang=  -0.02 deg.
 Initial guess <Sx>= 0.0000 <Sy>= 0.0000 <Sz>= 0.0000 <S**2>=-0.0000 S=-0.0000
 ExpMin= 1.27D-01 ExpMax= 4.17D+03 ExpMxC= 6.27D+02 IAcc=2 IRadAn=         4 AccDes= 0.00D+00
 Harris functional with IExCor=  402 and IRadAn=       4 diagonalized for initial guess.
 HarFok:  IExCor=  402 AccDes= 0.00D+00 IRadAn=         4 IDoV= 1 UseB2=F ITyADJ=14
 ICtDFT=  3500011 ScaDFX=  1.000000  1.000000  1.000000  1.000000
 FoFCou: FMM=F IPFlag=           0 FMFlag=      100000 FMFlg1=           0
         NFxFlg=           0 DoJE=T BraDBF=F KetDBF=T FulRan=T
         wScrn=  0.000000 ICntrl=       500 IOpCl=  0 I1Cent=   200000004 NGrid=           0
         NMat0=    1 NMatS0=      1 NMatT0=    0 NMatD0=    1 NMtDS0=    0 NMtDT0=    0
 Symmetry not used in FoFCou.
 Keep R1 and R2 ints in memory in canonical form, NReq=29209630.
 Requested convergence on RMS density matrix=1.00D-08 within1024 cycles.
 Requested convergence on MAX density matrix=1.00D-06.
 Requested convergence on             energy=1.00D-06.
 No special actions if energy rises.
 Integral accuracy reduced to 1.0D-05 until final iterations.
 Initial convergence to 1.0D-05 achieved.  Increase integral accuracy.
 SCF Done:  E(UB3LYP) =  -164.095469107     A.U. after    7 cycles
            NFock=  7  Conv=0.85D-08     -V/T= 2.0100
 <Sx>= 0.0000 <Sy>= 0.0000 <Sz>= 0.0000 <S**2>= 0.0000 S= 0.0000
 <L.S>= 0.000000000000E+00
 Annihilation of the first spin contaminant:
 S**2 before annihilation     0.0000,   after    -0.0000
 DoSCS=F DFT=T ScalE2(SS,OS)=  1.000000  1.000000
 Range of M.O.s used for correlation:     1   100
 NBasis=   100 NAE=    16 NBE=    16 NFC=     0 NFV=     0
 NROrb=    100 NOA=    16 NOB=    16 NVA=    84 NVB=    84
 Symmetrizing basis deriv contribution to polar:
 IMax=3 JMax=2 DiffMx= 0.00D+00
 Calling FoFJK, ICntrl=      2147 FMM=F ISym2X=0 I1Cent= 0 IOpClX= 1 NMat=1 NMatS=1 NMatT=0.
 -------------------------------------------------------------------
 Center     Atomic                   Forces (Hartrees/Bohr)
 Number     Number              X              Y              Z
 -------------------------------------------------------------------
      1        7          -0.000567937   -0.000211554   -0.000065111
      2        5          -0.001000588    0.000183812   -0.000051576
      3        7           0.000140417    0.000278184    0.000602412
      4        5           0.001045981   -0.000135081   -0.000027764
      5        1           0.000259951   -0.000231650   -0.000308942
      6        1          -0.000089822   -0.000045066   -0.000013507
      7        1          -0.000137220   -0.000013393    0.000106163
      8        1          -0.000003077    0.000038402    0.000013702
      9        1           0.000094802    0.000049613   -0.000157431
     10        1           0.000056478    0.000069961   -0.000059807
     11        1           0.000089487    0.000028911   -0.000042175
     12        1           0.000111526   -0.000012138    0.000004035
 -------------------------------------------------------------------
 Cartesian Forces:  Max     0.001045981 RMS     0.000303329
 IRC-IRC-IRC-IRC-IRC-IRC-IRC-IRC-IRC-IRC-IRC-IRC-IRC-IRC-IRC-IRC-IRC-IRC
 Error in corrector energy =          -0.0000013667
 Magnitude of corrector gradient =     0.0017015855
 Magnitude of analytic gradient =      0.0018199726
 Magnitude of difference =             0.0011076637
 Angle between gradients (degrees)=   36.4698
 Pt 89 Step number  18 out of a maximum of  20
 Modified Bulirsch-Stoer Extrapolation Cycles:
    EPS =    0.000010000000000
      PEZero:  N= 2 I= 1 D=  4.35D-04 Err=  5.12D-05
      PEZero:  N= 3 I= 2 D=  4.35D-04 Err=  3.42D-05
      PEZero:  N= 3 I= 1 D=  8.71D-04 Err=  6.75D-07
 Maximum DWI energy   std dev =  0.000003065 at pt    26
 Maximum DWI gradient std dev =  0.590647109 at pt    27
 CORRECTOR INTEGRATION CONVERGENCE:
   Recorrection delta-x convergence threshold:    0.010000
   Delta-x Convergence NOT Met
 IRC-IRC-IRC-IRC-IRC-IRC-IRC-IRC-IRC-IRC-IRC-IRC-IRC-IRC-IRC-IRC-IRC-IRC
                          Input orientation:                          
 ---------------------------------------------------------------------
 Center     Atomic      Atomic             Coordinates (Angstroms)
 Number     Number       Type             X           Y           Z
 ---------------------------------------------------------------------
      1          7           0       -1.830309   -0.614304   -0.060932
      2          5           0       -1.651831    0.751374   -0.267330
      3          7           0        1.830782   -0.614474    0.061492
      4          5           0        1.651527    0.750558    0.267104
      5          1           0        2.399189   -0.993823   -0.681686
      6          1           0       -2.196838    1.525191    0.462183
      7          1           0       -0.974694    1.116248   -1.181405
      8          1           0       -1.398097   -1.317741   -0.640977
      9          1           0       -2.400862   -0.993238    0.679682
     10          1           0        1.398833   -1.318339    0.641012
     11          1           0        0.975653    1.115523    1.182326
     12          1           0        2.194982    1.524673   -0.463418
 ---------------------------------------------------------------------
                    Distance matrix (angstroms):
                    1          2          3          4          5
     1  N    0.000000
     2  B    1.392671   0.000000
     3  N    3.663138   3.755298   0.000000
     4  B    3.754150   3.346310   1.392021   0.000000
     5  H    4.291623   4.430368   1.009606   2.121807   0.000000
     6  H    2.232808   1.194996   4.578258   3.930398   5.364451
     7  H    2.232118   1.194647   3.522909   3.021414   4.010636
     8  H    1.009001   2.117836   3.378418   3.795086   3.811294
     9  H    1.008776   2.121686   4.293301   4.430903   4.989369
    10  H    3.378720   3.796754   1.008886   2.117544   1.689838
    11  H    3.522984   3.022876   2.231682   1.194837   3.154415
    12  H    4.576045   3.928666   2.232515   1.195098   2.536171
                    6          7          8          9         10
     6  H    0.000000
     7  H    2.088601   0.000000
     8  H    3.152334   2.528959   0.000000
     9  H    2.536023   3.153971   1.689668   0.000000
    10  H    4.587645   3.857726   3.076737   3.813773   0.000000
    11  H    3.278892   3.064487   3.857447   4.012528   2.528989
    12  H    4.488299   3.275540   4.584873   5.363612   3.152195
                   11         12
    11  H    0.000000
    12  H    2.088693   0.000000
 Symmetry turned off by external request.
 Stoichiometry    B2H8N2
 Framework group  C1[X(B2H8N2)]
 Deg. of freedom    30
 Full point group                 C1      NOp   1
 Rotational constants (GHZ):          12.1515022           2.6912115           2.3230089
 Standard basis: 6-31G(d,p) (6D, 7F)
   100 basis functions,   168 primitive gaussians,   100 cartesian basis functions
    16 alpha electrons       16 beta electrons
       nuclear repulsion energy       100.7753552586 Hartrees.
 NAtoms=   12 NActive=   12 NUniq=   12 SFac= 1.00D+00 NAtFMM=   60 NAOKFM=F Big=F
 Integral buffers will be    131072 words long.
 Raffenetti 2 integral format.
 Two-electron integral symmetry is turned off.
 One-electron integrals computed using PRISM.
 NBasis=   100 RedAO= T EigKep=  1.00D-02  NBF=   100
 NBsUse=   100 1.00D-06 EigRej= -1.00D+00 NBFU=   100
 Initial guess from the checkpoint file:  "/scratch/1311851/Gau-12494.chk"
 B after Tr=     0.000159    0.000102    0.000422
         Rot=    1.000000    0.000182    0.000067   -0.000036 Ang=   0.02 deg.
 Initial guess <Sx>= 0.0000 <Sy>= 0.0000 <Sz>= 0.0000 <S**2>= 0.0000 S= 0.0000
 ExpMin= 1.27D-01 ExpMax= 4.17D+03 ExpMxC= 6.27D+02 IAcc=2 IRadAn=         4 AccDes= 0.00D+00
 Harris functional with IExCor=  402 and IRadAn=       4 diagonalized for initial guess.
 HarFok:  IExCor=  402 AccDes= 0.00D+00 IRadAn=         4 IDoV= 1 UseB2=F ITyADJ=14
 ICtDFT=  3500011 ScaDFX=  1.000000  1.000000  1.000000  1.000000
 FoFCou: FMM=F IPFlag=           0 FMFlag=      100000 FMFlg1=           0
         NFxFlg=           0 DoJE=T BraDBF=F KetDBF=T FulRan=T
         wScrn=  0.000000 ICntrl=       500 IOpCl=  0 I1Cent=   200000004 NGrid=           0
         NMat0=    1 NMatS0=      1 NMatT0=    0 NMatD0=    1 NMtDS0=    0 NMtDT0=    0
 Symmetry not used in FoFCou.
 Keep R1 and R2 ints in memory in canonical form, NReq=29209630.
 Requested convergence on RMS density matrix=1.00D-08 within1024 cycles.
 Requested convergence on MAX density matrix=1.00D-06.
 Requested convergence on             energy=1.00D-06.
 No special actions if energy rises.
 Integral accuracy reduced to 1.0D-05 until final iterations.
 Initial convergence to 1.0D-05 achieved.  Increase integral accuracy.
 SCF Done:  E(UB3LYP) =  -164.095468771     A.U. after    7 cycles
            NFock=  7  Conv=0.87D-08     -V/T= 2.0100
 <Sx>= 0.0000 <Sy>= 0.0000 <Sz>= 0.0000 <S**2>=-0.0000 S=-0.0000
 <L.S>= 0.000000000000E+00
 Annihilation of the first spin contaminant:
 S**2 before annihilation    -0.0000,   after     0.0000
 DoSCS=F DFT=T ScalE2(SS,OS)=  1.000000  1.000000
 Range of M.O.s used for correlation:     1   100
 NBasis=   100 NAE=    16 NBE=    16 NFC=     0 NFV=     0
 NROrb=    100 NOA=    16 NOB=    16 NVA=    84 NVB=    84
 Symmetrizing basis deriv contribution to polar:
 IMax=3 JMax=2 DiffMx= 0.00D+00
 Calling FoFJK, ICntrl=      2147 FMM=F ISym2X=0 I1Cent= 0 IOpClX= 1 NMat=1 NMatS=1 NMatT=0.
 -------------------------------------------------------------------
 Center     Atomic                   Forces (Hartrees/Bohr)
 Number     Number              X              Y              Z
 -------------------------------------------------------------------
      1        7          -0.000357022    0.000191563   -0.000401458
      2        5          -0.001038330   -0.000136117    0.000106566
      3        7           0.000822546   -0.000578541   -0.000389773
      4        5           0.000975131    0.000423632    0.000066962
      5        1          -0.000229471    0.000169708    0.000385125
      6        1          -0.000136625   -0.000002979    0.000010635
      7        1          -0.000039690    0.000076312   -0.000056534
      8        1           0.000003067    0.000005106    0.000008898
      9        1          -0.000135968   -0.000135260    0.000162742
     10        1          -0.000052470   -0.000031951    0.000110040
     11        1           0.000077387    0.000057572   -0.000005131
     12        1           0.000111443   -0.000039045    0.000001928
 -------------------------------------------------------------------
 Cartesian Forces:  Max     0.001038330 RMS     0.000337190
 IRC-IRC-IRC-IRC-IRC-IRC-IRC-IRC-IRC-IRC-IRC-IRC-IRC-IRC-IRC-IRC-IRC-IRC
 Error in corrector energy =          -0.0000013916
 Magnitude of corrector gradient =     0.0016241707
 Magnitude of analytic gradient =      0.0020231388
 Magnitude of difference =             0.0012186320
 Angle between gradients (degrees)=   37.0370
 Pt 89 Step number  19 out of a maximum of  20
 Modified Bulirsch-Stoer Extrapolation Cycles:
    EPS =    0.000010000000000
      PEZero:  N= 2 I= 1 D=  4.35D-04 Err=  1.02D-04
      PEZero:  N= 3 I= 2 D=  4.35D-04 Err=  6.81D-05
      PEZero:  N= 3 I= 1 D=  8.71D-04 Err=  4.25D-07
 Maximum DWI energy   std dev =  0.000003427 at pt    24
 Maximum DWI gradient std dev =  0.722861486 at pt    27
 CORRECTOR INTEGRATION CONVERGENCE:
   Recorrection delta-x convergence threshold:    0.010000
   Delta-x Convergence NOT Met
 IRC-IRC-IRC-IRC-IRC-IRC-IRC-IRC-IRC-IRC-IRC-IRC-IRC-IRC-IRC-IRC-IRC-IRC
                          Input orientation:                          
 ---------------------------------------------------------------------
 Center     Atomic      Atomic             Coordinates (Angstroms)
 Number     Number       Type             X           Y           Z
 ---------------------------------------------------------------------
      1          7           0       -1.830317   -0.614146   -0.061257
      2          5           0       -1.651857    0.751385   -0.266914
      3          7           0        1.830260   -0.615032    0.060410
      4          5           0        1.651625    0.750673    0.267016
      5          1           0        2.399232   -0.993543   -0.681311
      6          1           0       -2.197248    1.524927    0.462849
      7          1           0       -0.974898    1.117284   -1.181309
      8          1           0       -1.397789   -1.317474   -0.641275
      9          1           0       -2.400569   -0.993759    0.679904
     10          1           0        1.398422   -1.318679    0.640669
     11          1           0        0.975967    1.115711    1.182445
     12          1           0        2.195685    1.524470   -0.463324
 ---------------------------------------------------------------------
                    Distance matrix (angstroms):
                    1          2          3          4          5
     1  N    0.000000
     2  B    1.392414   0.000000
     3  N    3.662598   3.754913   0.000000
     4  B    3.754253   3.346352   1.392749   0.000000
     5  H    4.291561   4.430330   1.008538   2.121446   0.000000
     6  H    2.232703   1.195146   4.578450   3.930858   5.364646
     7  H    2.232512   1.195104   3.523024   3.021701   4.011278
     8  H    1.009045   2.117752   3.377289   3.794885   3.811024
     9  H    1.009263   2.121923   4.292682   4.431004   4.989087
    10  H    3.378435   3.796455   1.009110   2.118005   1.689664
    11  H    3.523412   3.023051   2.232544   1.194895   3.154080
    12  H    4.576465   3.929353   2.232779   1.195057   2.535615
                    6          7          8          9         10
     6  H    0.000000
     7  H    2.088916   0.000000
     8  H    3.152376   2.529530   0.000000
     9  H    2.536185   3.154862   1.689932   0.000000
    10  H    4.587653   3.858260   3.076065   3.813062   0.000000
    11  H    3.279417   3.064835   3.857598   4.012905   2.529475
    12  H    4.489506   3.276264   4.584907   5.364140   3.152447
                   11         12
    11  H    0.000000
    12  H    2.088863   0.000000
 Symmetry turned off by external request.
 Stoichiometry    B2H8N2
 Framework group  C1[X(B2H8N2)]
 Deg. of freedom    30
 Full point group                 C1      NOp   1
 Rotational constants (GHZ):          12.1483176           2.6915429           2.3231379
 Standard basis: 6-31G(d,p) (6D, 7F)
   100 basis functions,   168 primitive gaussians,   100 cartesian basis functions
    16 alpha electrons       16 beta electrons
       nuclear repulsion energy       100.7707905704 Hartrees.
 NAtoms=   12 NActive=   12 NUniq=   12 SFac= 1.00D+00 NAtFMM=   60 NAOKFM=F Big=F
 Integral buffers will be    131072 words long.
 Raffenetti 2 integral format.
 Two-electron integral symmetry is turned off.
 One-electron integrals computed using PRISM.
 NBasis=   100 RedAO= T EigKep=  1.00D-02  NBF=   100
 NBsUse=   100 1.00D-06 EigRej= -1.00D+00 NBFU=   100
 Initial guess from the checkpoint file:  "/scratch/1311851/Gau-12494.chk"
 B after Tr=    -0.000159   -0.000102   -0.000420
         Rot=    1.000000   -0.000182   -0.000068    0.000036 Ang=  -0.02 deg.
 Initial guess <Sx>= 0.0000 <Sy>= 0.0000 <Sz>= 0.0000 <S**2>=-0.0000 S=-0.0000
 ExpMin= 1.27D-01 ExpMax= 4.17D+03 ExpMxC= 6.27D+02 IAcc=2 IRadAn=         4 AccDes= 0.00D+00
 Harris functional with IExCor=  402 and IRadAn=       4 diagonalized for initial guess.
 HarFok:  IExCor=  402 AccDes= 0.00D+00 IRadAn=         4 IDoV= 1 UseB2=F ITyADJ=14
 ICtDFT=  3500011 ScaDFX=  1.000000  1.000000  1.000000  1.000000
 FoFCou: FMM=F IPFlag=           0 FMFlag=      100000 FMFlg1=           0
         NFxFlg=           0 DoJE=T BraDBF=F KetDBF=T FulRan=T
         wScrn=  0.000000 ICntrl=       500 IOpCl=  0 I1Cent=   200000004 NGrid=           0
         NMat0=    1 NMatS0=      1 NMatT0=    0 NMatD0=    1 NMtDS0=    0 NMtDT0=    0
 Symmetry not used in FoFCou.
 Keep R1 and R2 ints in memory in canonical form, NReq=29209630.
 Requested convergence on RMS density matrix=1.00D-08 within1024 cycles.
 Requested convergence on MAX density matrix=1.00D-06.
 Requested convergence on             energy=1.00D-06.
 No special actions if energy rises.
 Integral accuracy reduced to 1.0D-05 until final iterations.
 Initial convergence to 1.0D-05 achieved.  Increase integral accuracy.
 SCF Done:  E(UB3LYP) =  -164.095469108     A.U. after    7 cycles
            NFock=  7  Conv=0.84D-08     -V/T= 2.0100
 <Sx>= 0.0000 <Sy>= 0.0000 <Sz>= 0.0000 <S**2>=-0.0000 S=-0.0000
 <L.S>= 0.000000000000E+00
 Annihilation of the first spin contaminant:
 S**2 before annihilation    -0.0000,   after    -0.0000
 DoSCS=F DFT=T ScalE2(SS,OS)=  1.000000  1.000000
 Range of M.O.s used for correlation:     1   100
 NBasis=   100 NAE=    16 NBE=    16 NFC=     0 NFV=     0
 NROrb=    100 NOA=    16 NOB=    16 NVA=    84 NVB=    84
 Symmetrizing basis deriv contribution to polar:
 IMax=3 JMax=2 DiffMx= 0.00D+00
 Calling FoFJK, ICntrl=      2147 FMM=F ISym2X=0 I1Cent= 0 IOpClX= 1 NMat=1 NMatS=1 NMatT=0.
 -------------------------------------------------------------------
 Center     Atomic                   Forces (Hartrees/Bohr)
 Number     Number              X              Y              Z
 -------------------------------------------------------------------
      1        7          -0.000565505   -0.000210266   -0.000068455
      2        5          -0.000999597    0.000184097   -0.000053099
      3        7           0.000141420    0.000277947    0.000600740
      4        5           0.001045607   -0.000136509   -0.000027255
      5        1           0.000258507   -0.000230172   -0.000306956
      6        1          -0.000089879   -0.000045050   -0.000013306
      7        1          -0.000138362   -0.000014370    0.000107755
      8        1          -0.000003896    0.000039192    0.000014909
      9        1           0.000093398    0.000048206   -0.000155562
     10        1           0.000056663    0.000070478   -0.000059888
     11        1           0.000090004    0.000028677   -0.000042853
     12        1           0.000111642   -0.000012229    0.000003970
 -------------------------------------------------------------------
 Cartesian Forces:  Max     0.001045607 RMS     0.000302896
 IRC-IRC-IRC-IRC-IRC-IRC-IRC-IRC-IRC-IRC-IRC-IRC-IRC-IRC-IRC-IRC-IRC-IRC
 Error in corrector energy =          -0.0000013630
 Magnitude of corrector gradient =     0.0017007997
 Magnitude of analytic gradient =      0.0018173770
 Magnitude of difference =             0.0011046295
 Angle between gradients (degrees)=   36.4074
 Pt 89 Step number  20 out of a maximum of  20
 Modified Bulirsch-Stoer Extrapolation Cycles:
    EPS =    0.000010000000000
      PEZero:  N= 2 I= 1 D=  4.35D-04 Err=  5.13D-05
      PEZero:  N= 3 I= 2 D=  4.35D-04 Err=  3.43D-05
      PEZero:  N= 3 I= 1 D=  8.71D-04 Err=  6.77D-07
 Maximum DWI energy   std dev =  0.000003067 at pt    26
 Maximum DWI gradient std dev =  0.591325375 at pt    27
 CORRECTOR INTEGRATION CONVERGENCE:
   Recorrection delta-x convergence threshold:    0.010000
   Delta-x Convergence NOT Met
 Maximum number of corrector steps exceded.
 Error termination via Lnk1e in /opt/gaussian/g16/legacy/g16/l123.exe at Fri Jul  3 20:00:36 2020.
 Job cpu time:       0 days  3 hours 21 minutes 24.8 seconds.
 Elapsed time:       0 days  0 hours 51 minutes 34.6 seconds.
 File lengths (MBytes):  RWF=     29 Int=      0 D2E=      0 Chk=      4 Scr=      1
