 Entering Gaussian System, Link 0=/opt/gaussian/g16/legacy/g16/g16
 Initial command:
 /opt/gaussian/g16/legacy/g16/l1.exe "/scratch/1311844/Gau-11020.inp" -scrdir="/scratch/1311844/"
 Entering Link 1 = /opt/gaussian/g16/legacy/g16/l1.exe PID=     11030.
  
 Copyright (c) 1988,1990,1992,1993,1995,1998,2003,2009,2016,
            Gaussian, Inc.  All Rights Reserved.
  
 This is part of the Gaussian(R) 16 program.  It is based on
 the Gaussian(R) 09 system (copyright 2009, Gaussian, Inc.),
 the Gaussian(R) 03 system (copyright 2003, Gaussian, Inc.),
 the Gaussian(R) 98 system (copyright 1998, Gaussian, Inc.),
 the Gaussian(R) 94 system (copyright 1995, Gaussian, Inc.),
 the Gaussian 92(TM) system (copyright 1992, Gaussian, Inc.),
 the Gaussian 90(TM) system (copyright 1990, Gaussian, Inc.),
 the Gaussian 88(TM) system (copyright 1988, Gaussian, Inc.),
 the Gaussian 86(TM) system (copyright 1986, Carnegie Mellon
 University), and the Gaussian 82(TM) system (copyright 1983,
 Carnegie Mellon University). Gaussian is a federally registered
 trademark of Gaussian, Inc.
  
 This software contains proprietary and confidential information,
 including trade secrets, belonging to Gaussian, Inc.
  
 This software is provided under written license and may be
 used, copied, transmitted, or stored only in accord with that
 written license.
  
 The following legend is applicable only to US Government
 contracts under FAR:
  
                    RESTRICTED RIGHTS LEGEND
  
 Use, reproduction and disclosure by the US Government is
 subject to restrictions as set forth in subparagraphs (a)
 and (c) of the Commercial Computer Software - Restricted
 Rights clause in FAR 52.227-19.
  
 Gaussian, Inc.
 340 Quinnipiac St., Bldg. 40, Wallingford CT 06492
  
  
 ---------------------------------------------------------------
 Warning -- This program may not be used in any manner that
 competes with the business of Gaussian, Inc. or will provide
 assistance to any competitor of Gaussian, Inc.  The licensee
 of this program is prohibited from giving any competitor of
 Gaussian, Inc. access to this program.  By using this program,
 the user acknowledges that Gaussian, Inc. is engaged in the
 business of creating and licensing software in the field of
 computational chemistry and represents and warrants to the
 licensee that it is not a competitor of Gaussian, Inc. and that
 it will not use this program in any manner prohibited above.
 ---------------------------------------------------------------
  

 Cite this work as:
 Gaussian 16, Revision A.03,
 M. J. Frisch, G. W. Trucks, H. B. Schlegel, G. E. Scuseria, 
 M. A. Robb, J. R. Cheeseman, G. Scalmani, V. Barone, 
 G. A. Petersson, H. Nakatsuji, X. Li, M. Caricato, A. V. Marenich, 
 J. Bloino, B. G. Janesko, R. Gomperts, B. Mennucci, H. P. Hratchian, 
 J. V. Ortiz, A. F. Izmaylov, J. L. Sonnenberg, D. Williams-Young, 
 F. Ding, F. Lipparini, F. Egidi, J. Goings, B. Peng, A. Petrone, 
 T. Henderson, D. Ranasinghe, V. G. Zakrzewski, J. Gao, N. Rega, 
 G. Zheng, W. Liang, M. Hada, M. Ehara, K. Toyota, R. Fukuda, 
 J. Hasegawa, M. Ishida, T. Nakajima, Y. Honda, O. Kitao, H. Nakai, 
 T. Vreven, K. Throssell, J. A. Montgomery, Jr., J. E. Peralta, 
 F. Ogliaro, M. J. Bearpark, J. J. Heyd, E. N. Brothers, K. N. Kudin, 
 V. N. Staroverov, T. A. Keith, R. Kobayashi, J. Normand, 
 K. Raghavachari, A. P. Rendell, J. C. Burant, S. S. Iyengar, 
 J. Tomasi, M. Cossi, J. M. Millam, M. Klene, C. Adamo, R. Cammi, 
 J. W. Ochterski, R. L. Martin, K. Morokuma, O. Farkas, 
 J. B. Foresman, and D. J. Fox, Gaussian, Inc., Wallingford CT, 2016.
 
 ******************************************
 Gaussian 16:  EM64L-G16RevA.03 25-Dec-2016
                 3-Jul-2020 
 ******************************************
 %mem=16GB
 %nprocshared=4
 Will use up to    4 processors via shared memory.
 -------------------------------------------------
 # opt freq ub3lyp/6-31G(d,p) scf=(maxcycles=1024)
 -------------------------------------------------
 1/18=20,19=15,26=3,38=1/1,3;
 2/9=110,12=2,17=6,18=5,40=1/2;
 3/5=1,6=6,7=101,11=2,25=1,30=1,71=1,74=-5,116=2/1,2,3;
 4//1;
 5/5=2,7=1024,38=5/2;
 6/7=2,8=2,9=2,10=2,28=1/1;
 7//1,2,3,16;
 1/18=20,19=15,26=3/3(2);
 2/9=110/2;
 99//99;
 2/9=110/2;
 3/5=1,6=6,7=101,11=2,25=1,30=1,71=1,74=-5,116=2/1,2,3;
 4/5=5,16=3,69=1/1;
 5/5=2,7=1024,38=5/2;
 7//1,2,3,16;
 1/18=20,19=15,26=3/3(-5);
 2/9=110/2;
 6/7=2,8=2,9=2,10=2,19=2,28=1/1;
 99/9=1/99;
 ---------------
 something title
 ---------------
 Symbolic Z-matrix:
 Charge =  0 Multiplicity = 1
 N                    -1.67101  -0.55418  -0.04491 
 B                    -0.9113    0.66246  -0.02163 
 N                     1.67101  -0.55418   0.04491 
 B                     0.9113    0.66246   0.02163 
 H                     2.63196  -0.55446  -0.2537 
 H                    -1.48388   1.70514   0.07029 
 H                    -0.03408   0.79068  -0.97597 
 H                    -1.27107  -1.47803  -0.08441 
 H                    -2.63195  -0.55446   0.25371 
 H                     1.27107  -1.47803   0.08441 
 H                     0.03408   0.79068   0.97596 
 H                     1.48388   1.70514  -0.07029 
 

 GradGradGradGradGradGradGradGradGradGradGradGradGradGradGradGradGradGrad
 Berny optimization.
 Initialization pass.
                           ----------------------------
                           !    Initial Parameters    !
                           ! (Angstroms and Degrees)  !
 --------------------------                            --------------------------
 ! Name  Definition              Value          Derivative Info.                !
 --------------------------------------------------------------------------------
 ! R1    R(1,2)                  1.4345         estimate D2E/DX2                !
 ! R2    R(1,8)                  1.0075         estimate D2E/DX2                !
 ! R3    R(1,9)                  1.0063         estimate D2E/DX2                !
 ! R4    R(2,4)                  1.8231         estimate D2E/DX2                !
 ! R5    R(2,6)                  1.1931         estimate D2E/DX2                !
 ! R6    R(2,7)                  1.3026         estimate D2E/DX2                !
 ! R7    R(2,11)                 1.3804         estimate D2E/DX2                !
 ! R8    R(3,4)                  1.4345         estimate D2E/DX2                !
 ! R9    R(3,5)                  1.0063         estimate D2E/DX2                !
 ! R10   R(3,10)                 1.0075         estimate D2E/DX2                !
 ! R11   R(4,7)                  1.3804         estimate D2E/DX2                !
 ! R12   R(4,11)                 1.3026         estimate D2E/DX2                !
 ! R13   R(4,12)                 1.1931         estimate D2E/DX2                !
 ! A1    A(2,1,8)              124.6186         estimate D2E/DX2                !
 ! A2    A(2,1,9)              120.0759         estimate D2E/DX2                !
 ! A3    A(8,1,9)              112.9837         estimate D2E/DX2                !
 ! A4    A(1,2,4)              121.9932         estimate D2E/DX2                !
 ! A5    A(1,2,6)              119.2275         estimate D2E/DX2                !
 ! A6    A(1,2,7)              115.3559         estimate D2E/DX2                !
 ! A7    A(1,2,11)             116.9499         estimate D2E/DX2                !
 ! A8    A(4,2,6)              118.5514         estimate D2E/DX2                !
 ! A9    A(6,2,7)              107.0745         estimate D2E/DX2                !
 ! A10   A(6,2,11)             101.0593         estimate D2E/DX2                !
 ! A11   A(7,2,11)              93.3891         estimate D2E/DX2                !
 ! A12   A(4,3,5)              120.076          estimate D2E/DX2                !
 ! A13   A(4,3,10)             124.6186         estimate D2E/DX2                !
 ! A14   A(5,3,10)             112.9837         estimate D2E/DX2                !
 ! A15   A(2,4,3)              121.9932         estimate D2E/DX2                !
 ! A16   A(2,4,12)             118.5514         estimate D2E/DX2                !
 ! A17   A(3,4,7)              116.9497         estimate D2E/DX2                !
 ! A18   A(3,4,11)             115.3561         estimate D2E/DX2                !
 ! A19   A(3,4,12)             119.2275         estimate D2E/DX2                !
 ! A20   A(7,4,11)              93.3891         estimate D2E/DX2                !
 ! A21   A(7,4,12)             101.0592         estimate D2E/DX2                !
 ! A22   A(11,4,12)            107.0746         estimate D2E/DX2                !
 ! D1    D(8,1,2,4)             -3.1109         estimate D2E/DX2                !
 ! D2    D(8,1,2,6)           -177.5452         estimate D2E/DX2                !
 ! D3    D(8,1,2,7)             52.8519         estimate D2E/DX2                !
 ! D4    D(8,1,2,11)           -55.4683         estimate D2E/DX2                !
 ! D5    D(9,1,2,4)            158.345          estimate D2E/DX2                !
 ! D6    D(9,1,2,6)            -16.0893         estimate D2E/DX2                !
 ! D7    D(9,1,2,7)           -145.6923         estimate D2E/DX2                !
 ! D8    D(9,1,2,11)           105.9875         estimate D2E/DX2                !
 ! D9    D(1,2,4,3)             -0.4942         estimate D2E/DX2                !
 ! D10   D(1,2,4,12)           173.9764         estimate D2E/DX2                !
 ! D11   D(6,2,4,3)            173.9764         estimate D2E/DX2                !
 ! D12   D(6,2,4,12)           -11.5531         estimate D2E/DX2                !
 ! D13   D(5,3,4,2)            158.3458         estimate D2E/DX2                !
 ! D14   D(5,3,4,7)            105.9881         estimate D2E/DX2                !
 ! D15   D(5,3,4,11)          -145.6917         estimate D2E/DX2                !
 ! D16   D(5,3,4,12)           -16.0885         estimate D2E/DX2                !
 ! D17   D(10,3,4,2)            -3.1109         estimate D2E/DX2                !
 ! D18   D(10,3,4,7)           -55.4686         estimate D2E/DX2                !
 ! D19   D(10,3,4,11)           52.8516         estimate D2E/DX2                !
 ! D20   D(10,3,4,12)         -177.5452         estimate D2E/DX2                !
 --------------------------------------------------------------------------------
 Trust Radius=3.00D-01 FncErr=1.00D-07 GrdErr=1.00D-06 EigMax=2.50D+02 EigMin=1.00D-04
 Number of steps in this run=     65 maximum allowed number of steps=    100.
 GradGradGradGradGradGradGradGradGradGradGradGradGradGradGradGradGradGrad

                          Input orientation:                          
 ---------------------------------------------------------------------
 Center     Atomic      Atomic             Coordinates (Angstroms)
 Number     Number       Type             X           Y           Z
 ---------------------------------------------------------------------
      1          7           0       -1.671010   -0.554180   -0.044910
      2          5           0       -0.911300    0.662460   -0.021630
      3          7           0        1.671010   -0.554180    0.044910
      4          5           0        0.911300    0.662460    0.021630
      5          1           0        2.631960   -0.554460   -0.253700
      6          1           0       -1.483880    1.705140    0.070290
      7          1           0       -0.034080    0.790680   -0.975970
      8          1           0       -1.271070   -1.478030   -0.084410
      9          1           0       -2.631950   -0.554460    0.253710
     10          1           0        1.271070   -1.478030    0.084410
     11          1           0        0.034080    0.790680    0.975960
     12          1           0        1.483880    1.705140   -0.070290
 ---------------------------------------------------------------------
                    Distance matrix (angstroms):
                    1          2          3          4          5
     1  N    0.000000
     2  B    1.434543   0.000000
     3  N    3.343227   2.855340   0.000000
     4  B    2.855340   1.823113   1.434543   0.000000
     5  H    4.308033   3.753591   1.006277   2.125411   0.000000
     6  H    2.269981   1.193096   3.880529   2.612745   4.706474
     7  H    2.314100   1.302582   2.399620   1.380358   3.072270
     8  H    1.007478   2.171422   3.086431   3.058706   4.014385
     9  H    1.006270   2.125404   4.308023   3.753582   5.288309
    10  H    3.086431   3.058706   1.007478   2.171422   1.679084
    11  H    2.399616   1.380351   2.314096   1.302575   3.173397
    12  H    3.880529   2.612745   2.269981   1.193096   2.541165
                    6          7          8          9         10
     6  H    0.000000
     7  H    2.008188   0.000000
     8  H    3.194024   2.733508   0.000000
     9  H    2.541161   3.173396   1.679077   0.000000
    10  H    4.209812   2.823981   2.547739   4.014375   0.000000
    11  H    1.990145   1.953120   2.823977   3.072257   2.733505
    12  H    2.971088   1.990150   4.209812   4.706466   3.194024
                   11         12
    11  H    0.000000
    12  H    2.008182   0.000000
 Stoichiometry    B2H8N2
 Framework group  C1[X(B2H8N2)]
 Deg. of freedom    30
 Full point group                 C1      NOp   1
 Largest Abelian subgroup         C1      NOp   1
 Largest concise Abelian subgroup C1      NOp   1
                         Standard orientation:                         
 ---------------------------------------------------------------------
 Center     Atomic      Atomic             Coordinates (Angstroms)
 Number     Number       Type             X           Y           Z
 ---------------------------------------------------------------------
      1          7           0        1.671000   -0.547703    0.045292
      2          5           0        0.911295    0.668937    0.021837
      3          7           0       -1.670999   -0.547703   -0.045291
      4          5           0       -0.911295    0.668937   -0.021838
      5          1           0       -2.632018   -0.547983    0.253100
      6          1           0        1.483897    1.711617   -0.069953
      7          1           0        0.033858    0.797158    0.975977
      8          1           0        1.271051   -1.471553    0.084701
      9          1           0        2.632008   -0.547984   -0.253109
     10          1           0       -1.271051   -1.471553   -0.084699
     11          1           0       -0.033857    0.797156   -0.975968
     12          1           0       -1.483895    1.711617    0.069950
 ---------------------------------------------------------------------
 Rotational constants (GHZ):          15.5335279           4.2014337           3.4016692
 Standard basis: 6-31G(d,p) (6D, 7F)
 There are   100 symmetry adapted cartesian basis functions of A   symmetry.
 There are   100 symmetry adapted basis functions of A   symmetry.
   100 basis functions,   168 primitive gaussians,   100 cartesian basis functions
    16 alpha electrons       16 beta electrons
       nuclear repulsion energy       111.9017653921 Hartrees.
 NAtoms=   12 NActive=   12 NUniq=   12 SFac= 1.00D+00 NAtFMM=   60 NAOKFM=F Big=F
 Integral buffers will be    131072 words long.
 Raffenetti 2 integral format.
 Two-electron integral symmetry is turned on.
 One-electron integrals computed using PRISM.
 NBasis=   100 RedAO= T EigKep=  4.09D-03  NBF=   100
 NBsUse=   100 1.00D-06 EigRej= -1.00D+00 NBFU=   100
 ExpMin= 1.27D-01 ExpMax= 4.17D+03 ExpMxC= 6.27D+02 IAcc=3 IRadAn=         5 AccDes= 0.00D+00
 Harris functional with IExCor=  402 and IRadAn=       5 diagonalized for initial guess.
 HarFok:  IExCor=  402 AccDes= 0.00D+00 IRadAn=         5 IDoV= 1 UseB2=F ITyADJ=14
 ICtDFT=  3500011 ScaDFX=  1.000000  1.000000  1.000000  1.000000
 FoFCou: FMM=F IPFlag=           0 FMFlag=      100000 FMFlg1=           0
         NFxFlg=           0 DoJE=T BraDBF=F KetDBF=T FulRan=T
         wScrn=  0.000000 ICntrl=       500 IOpCl=  0 I1Cent=   200000004 NGrid=           0
         NMat0=    1 NMatS0=      1 NMatT0=    0 NMatD0=    1 NMtDS0=    0 NMtDT0=    0
 Petite list used in FoFCou.
 Initial guess <Sx>= 0.0000 <Sy>= 0.0000 <Sz>= 0.0000 <S**2>=-0.0000 S=-0.0000
 Keep R1 and R2 ints in memory in canonical form, NReq=29209894.
 Requested convergence on RMS density matrix=1.00D-08 within1024 cycles.
 Requested convergence on MAX density matrix=1.00D-06.
 Requested convergence on             energy=1.00D-06.
 No special actions if energy rises.
 Integral accuracy reduced to 1.0D-05 until final iterations.
 Initial convergence to 1.0D-05 achieved.  Increase integral accuracy.
 SCF Done:  E(UB3LYP) =  -164.078747317     A.U. after   12 cycles
            NFock= 12  Conv=0.12D-08     -V/T= 2.0099
 <Sx>= 0.0000 <Sy>= 0.0000 <Sz>= 0.0000 <S**2>=-0.0000 S=-0.0000
 <L.S>= 0.000000000000E+00
 Annihilation of the first spin contaminant:
 S**2 before annihilation    -0.0000,   after     0.0000

 **********************************************************************

            Population analysis using the SCF density.

 **********************************************************************

 Orbital symmetries:
 Alpha Orbitals:
       Occupied  (A) (A) (A) (A) (A) (A) (A) (A) (A) (A) (A) (A)
                 (A) (A) (A) (A)
       Virtual   (A) (A) (A) (A) (A) (A) (A) (A) (A) (A) (A) (A)
                 (A) (A) (A) (A) (A) (A) (A) (A) (A) (A) (A) (A)
                 (A) (A) (A) (A) (A) (A) (A) (A) (A) (A) (A) (A)
                 (A) (A) (A) (A) (A) (A) (A) (A) (A) (A) (A) (A)
                 (A) (A) (A) (A) (A) (A) (A) (A) (A) (A) (A) (A)
                 (A) (A) (A) (A) (A) (A) (A) (A) (A) (A) (A) (A)
                 (A) (A) (A) (A) (A) (A) (A) (A) (A) (A) (A) (A)
 Beta  Orbitals:
       Occupied  (A) (A) (A) (A) (A) (A) (A) (A) (A) (A) (A) (A)
                 (A) (A) (A) (A)
       Virtual   (A) (A) (A) (A) (A) (A) (A) (A) (A) (A) (A) (A)
                 (A) (A) (A) (A) (A) (A) (A) (A) (A) (A) (A) (A)
                 (A) (A) (A) (A) (A) (A) (A) (A) (A) (A) (A) (A)
                 (A) (A) (A) (A) (A) (A) (A) (A) (A) (A) (A) (A)
                 (A) (A) (A) (A) (A) (A) (A) (A) (A) (A) (A) (A)
                 (A) (A) (A) (A) (A) (A) (A) (A) (A) (A) (A) (A)
                 (A) (A) (A) (A) (A) (A) (A) (A) (A) (A) (A) (A)
 The electronic state is 1-A.
 Alpha  occ. eigenvalues --  -14.30489 -14.30489  -6.75226  -6.75206  -0.84619
 Alpha  occ. eigenvalues --   -0.83691  -0.61842  -0.49631  -0.49045  -0.46603
 Alpha  occ. eigenvalues --   -0.43376  -0.39853  -0.34430  -0.33354  -0.26687
 Alpha  occ. eigenvalues --   -0.22191
 Alpha virt. eigenvalues --    0.05098   0.05810   0.10666   0.12032   0.13739
 Alpha virt. eigenvalues --    0.16710   0.18422   0.20830   0.24010   0.28283
 Alpha virt. eigenvalues --    0.28830   0.36483   0.39309   0.43835   0.48256
 Alpha virt. eigenvalues --    0.52007   0.53922   0.60463   0.67103   0.71231
 Alpha virt. eigenvalues --    0.73659   0.75149   0.78329   0.79874   0.82347
 Alpha virt. eigenvalues --    0.85667   0.85698   0.87456   0.90232   0.92977
 Alpha virt. eigenvalues --    0.96407   0.97102   1.09913   1.11529   1.16356
 Alpha virt. eigenvalues --    1.23378   1.34102   1.36316   1.38094   1.44759
 Alpha virt. eigenvalues --    1.45672   1.55842   1.60060   1.61625   1.67914
 Alpha virt. eigenvalues --    1.83650   1.84414   1.85425   1.99914   2.01136
 Alpha virt. eigenvalues --    2.09981   2.14303   2.16696   2.19677   2.22196
 Alpha virt. eigenvalues --    2.26850   2.34718   2.37591   2.40059   2.52000
 Alpha virt. eigenvalues --    2.52893   2.53357   2.59496   2.60279   2.62157
 Alpha virt. eigenvalues --    2.66733   2.69926   2.75526   2.81196   2.82395
 Alpha virt. eigenvalues --    2.95242   2.96217   3.03317   3.07492   3.21026
 Alpha virt. eigenvalues --    3.22442   3.30209   3.36403   3.52354   3.60810
 Alpha virt. eigenvalues --    3.61349   3.80929   4.24798   4.27762
  Beta  occ. eigenvalues --  -14.30489 -14.30489  -6.75226  -6.75206  -0.84619
  Beta  occ. eigenvalues --   -0.83691  -0.61842  -0.49631  -0.49045  -0.46603
  Beta  occ. eigenvalues --   -0.43376  -0.39853  -0.34430  -0.33354  -0.26687
  Beta  occ. eigenvalues --   -0.22191
  Beta virt. eigenvalues --    0.05098   0.05810   0.10666   0.12032   0.13739
  Beta virt. eigenvalues --    0.16710   0.18422   0.20830   0.24010   0.28283
  Beta virt. eigenvalues --    0.28830   0.36483   0.39309   0.43835   0.48256
  Beta virt. eigenvalues --    0.52007   0.53922   0.60463   0.67103   0.71231
  Beta virt. eigenvalues --    0.73659   0.75149   0.78329   0.79874   0.82347
  Beta virt. eigenvalues --    0.85667   0.85698   0.87456   0.90232   0.92977
  Beta virt. eigenvalues --    0.96407   0.97102   1.09913   1.11529   1.16356
  Beta virt. eigenvalues --    1.23378   1.34102   1.36316   1.38094   1.44759
  Beta virt. eigenvalues --    1.45672   1.55842   1.60060   1.61625   1.67914
  Beta virt. eigenvalues --    1.83650   1.84414   1.85425   1.99914   2.01136
  Beta virt. eigenvalues --    2.09981   2.14303   2.16696   2.19677   2.22196
  Beta virt. eigenvalues --    2.26850   2.34718   2.37591   2.40059   2.52000
  Beta virt. eigenvalues --    2.52893   2.53357   2.59496   2.60279   2.62157
  Beta virt. eigenvalues --    2.66733   2.69926   2.75526   2.81196   2.82395
  Beta virt. eigenvalues --    2.95242   2.96217   3.03317   3.07492   3.21026
  Beta virt. eigenvalues --    3.22442   3.30209   3.36403   3.52354   3.60810
  Beta virt. eigenvalues --    3.61349   3.80929   4.24798   4.27762
          Condensed to atoms (all electrons):
               1          2          3          4          5          6
     1  N    6.547698   0.455315  -0.002348  -0.009865   0.000011  -0.025688
     2  B    0.455315   3.502897  -0.009865   0.153435   0.001201   0.403291
     3  N   -0.002348  -0.009865   6.547701   0.455315   0.364653   0.001352
     4  B   -0.009865   0.153435   0.455315   3.502896  -0.031037  -0.023771
     5  H    0.000011   0.001201   0.364653  -0.031037   0.447119  -0.000036
     6  H   -0.025688   0.403291   0.001352  -0.023771  -0.000036   0.724828
     7  H   -0.024232   0.230172  -0.031932   0.153739   0.000086  -0.010913
     8  H    0.356592  -0.040172   0.001787  -0.004295  -0.000060   0.003562
     9  H    0.364654  -0.031038   0.000011   0.001202  -0.000000  -0.003521
    10  H    0.001787  -0.004295   0.356592  -0.040172  -0.030628   0.000030
    11  H   -0.031932   0.153739  -0.024231   0.230171   0.001892  -0.007770
    12  H    0.001352  -0.023771  -0.025688   0.403291  -0.003521  -0.000498
               7          8          9         10         11         12
     1  N   -0.024232   0.356592   0.364654   0.001787  -0.031932   0.001352
     2  B    0.230172  -0.040172  -0.031038  -0.004295   0.153739  -0.023771
     3  N   -0.031932   0.001787   0.000011   0.356592  -0.024231  -0.025688
     4  B    0.153739  -0.004295   0.001202  -0.040172   0.230171   0.403291
     5  H    0.000086  -0.000060  -0.000000  -0.030628   0.001892  -0.003521
     6  H   -0.010913   0.003562  -0.003521   0.000030  -0.007770  -0.000498
     7  H    0.785799  -0.001133   0.001892  -0.000287  -0.093778  -0.007770
     8  H   -0.001133   0.476140  -0.030628   0.002016  -0.000287   0.000030
     9  H    0.001892  -0.030628   0.447118  -0.000060   0.000086  -0.000036
    10  H   -0.000287   0.002016  -0.000060   0.476140  -0.001133   0.003562
    11  H   -0.093778  -0.000287   0.000086  -0.001133   0.785800  -0.010913
    12  H   -0.007770   0.000030  -0.000036   0.003562  -0.010913   0.724828
          Atomic-Atomic Spin Densities.
               1          2          3          4          5          6
     1  N    0.000000   0.000000   0.000000  -0.000000   0.000000   0.000000
     2  B    0.000000   0.000000   0.000000  -0.000000  -0.000000   0.000000
     3  N    0.000000   0.000000   0.000000   0.000000  -0.000000  -0.000000
     4  B   -0.000000  -0.000000   0.000000   0.000000   0.000000   0.000000
     5  H    0.000000  -0.000000  -0.000000   0.000000  -0.000000  -0.000000
     6  H    0.000000   0.000000  -0.000000   0.000000  -0.000000  -0.000000
     7  H    0.000000   0.000000  -0.000000  -0.000000  -0.000000  -0.000000
     8  H   -0.000000   0.000000   0.000000  -0.000000  -0.000000   0.000000
     9  H   -0.000000   0.000000   0.000000  -0.000000   0.000000   0.000000
    10  H   -0.000000   0.000000  -0.000000   0.000000  -0.000000   0.000000
    11  H   -0.000000  -0.000000   0.000000  -0.000000   0.000000  -0.000000
    12  H   -0.000000  -0.000000  -0.000000   0.000000  -0.000000   0.000000
               7          8          9         10         11         12
     1  N    0.000000  -0.000000  -0.000000  -0.000000  -0.000000  -0.000000
     2  B    0.000000   0.000000   0.000000   0.000000  -0.000000  -0.000000
     3  N   -0.000000   0.000000   0.000000  -0.000000   0.000000  -0.000000
     4  B   -0.000000  -0.000000  -0.000000   0.000000  -0.000000   0.000000
     5  H   -0.000000  -0.000000   0.000000  -0.000000   0.000000  -0.000000
     6  H   -0.000000   0.000000   0.000000   0.000000  -0.000000   0.000000
     7  H    0.000000   0.000000   0.000000  -0.000000   0.000000  -0.000000
     8  H    0.000000  -0.000000  -0.000000  -0.000000  -0.000000  -0.000000
     9  H    0.000000  -0.000000  -0.000000  -0.000000   0.000000  -0.000000
    10  H   -0.000000  -0.000000  -0.000000  -0.000000   0.000000  -0.000000
    11  H    0.000000  -0.000000   0.000000   0.000000  -0.000000  -0.000000
    12  H   -0.000000  -0.000000  -0.000000  -0.000000  -0.000000  -0.000000
 Mulliken charges and spin densities:
               1          2
     1  N   -0.633347   0.000000
     2  B    0.209091   0.000000
     3  N   -0.633348   0.000000
     4  B    0.209092  -0.000000
     5  H    0.250320  -0.000000
     6  H   -0.060868  -0.000000
     7  H   -0.001644   0.000000
     8  H    0.236448  -0.000000
     9  H    0.250319  -0.000000
    10  H    0.236448  -0.000000
    11  H   -0.001643  -0.000000
    12  H   -0.060868  -0.000000
 Sum of Mulliken charges =  -0.00000   0.00000
 Mulliken charges and spin densities with hydrogens summed into heavy atoms:
               1          2
     1  N   -0.146580  -0.000000
     2  B    0.146579   0.000000
     3  N   -0.146580   0.000000
     4  B    0.146581  -0.000000
 Electronic spatial extent (au):  <R**2>=            385.4916
 Charge=             -0.0000 electrons
 Dipole moment (field-independent basis, Debye):
    X=             -0.0000    Y=             -2.2221    Z=             -0.0000  Tot=              2.2221
 Quadrupole moment (field-independent basis, Debye-Ang):
   XX=            -23.4208   YY=            -25.5910   ZZ=            -28.9607
   XY=              0.0000   XZ=             -2.7052   YZ=              0.0000
 Traceless Quadrupole moment (field-independent basis, Debye-Ang):
   XX=              2.5701   YY=              0.3998   ZZ=             -2.9699
   XY=              0.0000   XZ=             -2.7052   YZ=              0.0000
 Octapole moment (field-independent basis, Debye-Ang**2):
  XXX=             -0.0003  YYY=            -21.1836  ZZZ=             -0.0000  XYY=              0.0000
  XXY=            -10.9477  XXZ=             -0.0001  XZZ=              0.0000  YZZ=             -2.0049
  YYZ=             -0.0000  XYZ=              1.3027
 Hexadecapole moment (field-independent basis, Debye-Ang**3):
 XXXX=           -270.3940 YYYY=           -129.4673 ZZZZ=            -39.8655 XXXY=              0.0001
 XXXZ=            -20.6171 YYYX=             -0.0000 YYYZ=             -0.0000 ZZZX=             -2.2616
 ZZZY=             -0.0000 XXYY=            -77.7901 XXZZ=            -70.6063 YYZZ=            -30.2229
 XXYZ=              0.0001 YYXZ=             -0.5821 ZZXY=             -0.0000
 N-N= 1.119017653921D+02 E-N=-6.041279979017D+02  KE= 1.624697351616D+02
                          Isotropic Fermi Contact Couplings
        Atom                 a.u.       MegaHertz       Gauss      10(-4) cm-1
     1  N(14)              0.00000       0.00000       0.00000       0.00000
     2  B(11)              0.00000       0.00000       0.00000       0.00000
     3  N(14)              0.00000       0.00000       0.00000       0.00000
     4  B(11)              0.00000       0.00000       0.00000       0.00000
     5  H(1)              -0.00000      -0.00000      -0.00000      -0.00000
     6  H(1)               0.00000       0.00000       0.00000       0.00000
     7  H(1)              -0.00000      -0.00000      -0.00000      -0.00000
     8  H(1)              -0.00000      -0.00000      -0.00000      -0.00000
     9  H(1)              -0.00000      -0.00000      -0.00000      -0.00000
    10  H(1)              -0.00000      -0.00000      -0.00000      -0.00000
    11  H(1)              -0.00000      -0.00000      -0.00000      -0.00000
    12  H(1)               0.00000       0.00000       0.00000       0.00000
 --------------------------------------------------------
       Center         ----  Spin Dipole Couplings  ----
                      3XX-RR        3YY-RR        3ZZ-RR
 --------------------------------------------------------
     1   Atom        0.000000      0.000000      0.000000
     2   Atom        0.000000      0.000000      0.000000
     3   Atom        0.000000      0.000000      0.000000
     4   Atom        0.000000      0.000000      0.000000
     5   Atom        0.000000      0.000000      0.000000
     6   Atom        0.000000      0.000000      0.000000
     7   Atom        0.000000      0.000000      0.000000
     8   Atom        0.000000      0.000000      0.000000
     9   Atom        0.000000      0.000000      0.000000
    10   Atom        0.000000      0.000000      0.000000
    11   Atom        0.000000      0.000000      0.000000
    12   Atom        0.000000      0.000000      0.000000
 --------------------------------------------------------
                        XY            XZ            YZ
 --------------------------------------------------------
     1   Atom        0.000000      0.000000      0.000000
     2   Atom        0.000000      0.000000      0.000000
     3   Atom        0.000000      0.000000      0.000000
     4   Atom        0.000000      0.000000      0.000000
     5   Atom        0.000000      0.000000      0.000000
     6   Atom        0.000000      0.000000      0.000000
     7   Atom        0.000000      0.000000      0.000000
     8   Atom        0.000000      0.000000      0.000000
     9   Atom        0.000000      0.000000      0.000000
    10   Atom        0.000000      0.000000      0.000000
    11   Atom        0.000000      0.000000      0.000000
    12   Atom        0.000000      0.000000      0.000000
 --------------------------------------------------------


 ---------------------------------------------------------------------------------
              Anisotropic Spin Dipole Couplings in Principal Axis System
 ---------------------------------------------------------------------------------

       Atom             a.u.   MegaHertz   Gauss  10(-4) cm-1        Axes

              Baa     0.0000     0.000     0.000     0.000  1.0000  0.0000  0.0000
     1 N(14)  Bbb     0.0000     0.000     0.000     0.000 -0.0000  1.0000  0.0000
              Bcc     0.0000     0.000     0.000     0.000  0.0000  0.0000  1.0000
 
              Baa     0.0000     0.000     0.000     0.000  1.0000  0.0000  0.0000
     2 B(11)  Bbb     0.0000     0.000     0.000     0.000 -0.0000  1.0000  0.0000
              Bcc     0.0000     0.000     0.000     0.000  0.0000  0.0000  1.0000
 
              Baa     0.0000     0.000     0.000     0.000  1.0000  0.0000  0.0000
     3 N(14)  Bbb     0.0000     0.000     0.000     0.000 -0.0000  1.0000  0.0000
              Bcc     0.0000     0.000     0.000     0.000  0.0000  0.0000  1.0000
 
              Baa     0.0000     0.000     0.000     0.000  1.0000  0.0000  0.0000
     4 B(11)  Bbb     0.0000     0.000     0.000     0.000 -0.0000  1.0000  0.0000
              Bcc     0.0000     0.000     0.000     0.000  0.0000  0.0000  1.0000
 
              Baa     0.0000     0.000     0.000     0.000  1.0000  0.0000  0.0000
     5 H(1)   Bbb     0.0000     0.000     0.000     0.000 -0.0000  1.0000  0.0000
              Bcc     0.0000     0.000     0.000     0.000  0.0000  0.0000  1.0000
 
              Baa     0.0000     0.000     0.000     0.000  1.0000  0.0000  0.0000
     6 H(1)   Bbb     0.0000     0.000     0.000     0.000 -0.0000  1.0000  0.0000
              Bcc     0.0000     0.000     0.000     0.000  0.0000  0.0000  1.0000
 
              Baa     0.0000     0.000     0.000     0.000  1.0000  0.0000  0.0000
     7 H(1)   Bbb     0.0000     0.000     0.000     0.000 -0.0000  1.0000  0.0000
              Bcc     0.0000     0.000     0.000     0.000  0.0000  0.0000  1.0000
 
              Baa     0.0000     0.000     0.000     0.000  1.0000  0.0000  0.0000
     8 H(1)   Bbb     0.0000     0.000     0.000     0.000 -0.0000  1.0000  0.0000
              Bcc     0.0000     0.000     0.000     0.000  0.0000  0.0000  1.0000
 
              Baa     0.0000     0.000     0.000     0.000  1.0000  0.0000  0.0000
     9 H(1)   Bbb     0.0000     0.000     0.000     0.000 -0.0000  1.0000  0.0000
              Bcc     0.0000     0.000     0.000     0.000  0.0000  0.0000  1.0000
 
              Baa     0.0000     0.000     0.000     0.000  1.0000  0.0000  0.0000
    10 H(1)   Bbb     0.0000     0.000     0.000     0.000 -0.0000  1.0000  0.0000
              Bcc     0.0000     0.000     0.000     0.000  0.0000  0.0000  1.0000
 
              Baa     0.0000     0.000     0.000     0.000  1.0000  0.0000  0.0000
    11 H(1)   Bbb     0.0000     0.000     0.000     0.000 -0.0000  1.0000  0.0000
              Bcc     0.0000     0.000     0.000     0.000  0.0000  0.0000  1.0000
 
              Baa     0.0000     0.000     0.000     0.000  1.0000  0.0000  0.0000
    12 H(1)   Bbb     0.0000     0.000     0.000     0.000 -0.0000  1.0000  0.0000
              Bcc     0.0000     0.000     0.000     0.000  0.0000  0.0000  1.0000
 

 ---------------------------------------------------------------------------------

 Calling FoFJK, ICntrl=      2127 FMM=F ISym2X=0 I1Cent= 0 IOpClX= 1 NMat=1 NMatS=1 NMatT=0.
 ***** Axes restored to original set *****
 -------------------------------------------------------------------
 Center     Atomic                   Forces (Hartrees/Bohr)
 Number     Number              X              Y              Z
 -------------------------------------------------------------------
      1        7           0.000049719   -0.000126207   -0.000012190
      2        5          -0.000006920   -0.000000908    0.000006213
      3        7          -0.000044327   -0.000126068    0.000010752
      4        5           0.000007724   -0.000001010   -0.000008835
      5        1          -0.000006044    0.000001953    0.000005753
      6        1           0.000003501   -0.000001505   -0.000003087
      7        1           0.000001579   -0.000000853   -0.000000295
      8        1          -0.000056854    0.000127440    0.000020202
      9        1           0.000000141    0.000001939   -0.000004047
     10        1           0.000057059    0.000127384   -0.000020232
     11        1          -0.000002083   -0.000000667    0.000002534
     12        1          -0.000003496   -0.000001497    0.000003232
 -------------------------------------------------------------------
 Cartesian Forces:  Max     0.000127440 RMS     0.000046152

 GradGradGradGradGradGradGradGradGradGradGradGradGradGradGradGradGradGrad
 Berny optimization.
 FormGI is forming the generalized inverse of G from B-inverse, IUseBI=4.
 Internal  Forces:  Max     0.000140266 RMS     0.000027458
 Search for a local minimum.
 Step number   1 out of a maximum of   65
 All quantities printed in internal units (Hartrees-Bohrs-Radians)
 Mixed Optimization -- En-DIIS/RFO-DIIS
 Second derivative matrix not updated -- first step.
 ITU=  0
     Eigenvalues ---    0.01764   0.01764   0.01915   0.01915   0.03040
     Eigenvalues ---    0.03522   0.03577   0.09007   0.11588   0.13768
     Eigenvalues ---    0.14174   0.15462   0.15962   0.15970   0.16000
     Eigenvalues ---    0.16000   0.16000   0.16000   0.16274   0.16891
     Eigenvalues ---    0.18664   0.21279   0.25176   0.25176   0.40343
     Eigenvalues ---    0.40343   0.46397   0.46397   0.46602   0.46603
 RFO step:  Lambda=-1.19797138D-07 EMin= 1.76414092D-02
 Linear search not attempted -- first point.
 Iteration  1 RMS(Cart)=  0.00025819 RMS(Int)=  0.00000005
 Iteration  2 RMS(Cart)=  0.00000005 RMS(Int)=  0.00000001
 Variable       Old X    -DE/DX   Delta X   Delta X   Delta X     New X
                                 (Linear)    (Quad)   (Total)
    R1        2.71089   0.00000   0.00000   0.00000   0.00000   2.71090
    R2        1.90386  -0.00014   0.00000  -0.00030  -0.00030   1.90355
    R3        1.90158  -0.00000   0.00000  -0.00000  -0.00000   1.90157
    R4        3.44518   0.00001   0.00000   0.00006   0.00006   3.44524
    R5        2.25463  -0.00000   0.00000  -0.00001  -0.00001   2.25461
    R6        2.46152   0.00000   0.00000   0.00002   0.00002   2.46155
    R7        2.60849  -0.00000   0.00000  -0.00001  -0.00001   2.60847
    R8        2.71089   0.00000   0.00000   0.00000   0.00000   2.71090
    R9        1.90159  -0.00001   0.00000  -0.00002  -0.00002   1.90157
   R10        1.90386  -0.00014   0.00000  -0.00030  -0.00030   1.90355
   R11        2.60850  -0.00000   0.00000  -0.00002  -0.00002   2.60848
   R12        2.46151   0.00001   0.00000   0.00003   0.00003   2.46154
   R13        2.25463  -0.00000   0.00000  -0.00001  -0.00001   2.25461
    A1        2.17501   0.00000   0.00000  -0.00000  -0.00000   2.17501
    A2        2.09572  -0.00000   0.00000  -0.00003  -0.00003   2.09569
    A3        1.97194  -0.00000   0.00000  -0.00002  -0.00002   1.97192
    A4        2.12918   0.00002   0.00000   0.00010   0.00010   2.12928
    A5        2.08091  -0.00001   0.00000  -0.00002  -0.00002   2.08089
    A6        2.01334   0.00000   0.00000   0.00011   0.00011   2.01345
    A7        2.04116  -0.00000   0.00000  -0.00011  -0.00011   2.04105
    A8        2.06911  -0.00001   0.00000  -0.00007  -0.00007   2.06904
    A9        1.86880   0.00000   0.00000  -0.00005  -0.00005   1.86875
   A10        1.76382   0.00000   0.00000   0.00008   0.00008   1.76389
   A11        1.62995   0.00000   0.00000  -0.00000  -0.00000   1.62995
   A12        2.09572  -0.00000   0.00000  -0.00004  -0.00004   2.09569
   A13        2.17501   0.00000   0.00000   0.00000   0.00000   2.17501
   A14        1.97194  -0.00000   0.00000  -0.00002  -0.00002   1.97192
   A15        2.12918   0.00002   0.00000   0.00010   0.00010   2.12928
   A16        2.06911  -0.00001   0.00000  -0.00007  -0.00007   2.06904
   A17        2.04116  -0.00000   0.00000  -0.00011  -0.00011   2.04105
   A18        2.01334   0.00000   0.00000   0.00011   0.00011   2.01345
   A19        2.08091  -0.00001   0.00000  -0.00002  -0.00002   2.08089
   A20        1.62995   0.00000   0.00000  -0.00000  -0.00000   1.62995
   A21        1.76382   0.00000   0.00000   0.00008   0.00008   1.76389
   A22        1.86880   0.00000   0.00000  -0.00005  -0.00005   1.86876
    D1       -0.05430   0.00001   0.00000   0.00029   0.00029  -0.05401
    D2       -3.09875   0.00001   0.00000   0.00034   0.00034  -3.09841
    D3        0.92244   0.00001   0.00000   0.00032   0.00032   0.92276
    D4       -0.96811   0.00000   0.00000   0.00032   0.00032  -0.96778
    D5        2.76364   0.00000   0.00000   0.00007   0.00007   2.76371
    D6       -0.28081   0.00000   0.00000   0.00012   0.00012  -0.28069
    D7       -2.54281   0.00000   0.00000   0.00010   0.00010  -2.54271
    D8        1.84983   0.00000   0.00000   0.00010   0.00010   1.84993
    D9       -0.00862   0.00001   0.00000   0.00032   0.00032  -0.00830
   D10        3.03646   0.00001   0.00000   0.00027   0.00027   3.03673
   D11        3.03646   0.00001   0.00000   0.00027   0.00027   3.03673
   D12       -0.20164   0.00001   0.00000   0.00022   0.00022  -0.20142
   D13        2.76366   0.00000   0.00000   0.00007   0.00007   2.76372
   D14        1.84984   0.00000   0.00000   0.00010   0.00010   1.84994
   D15       -2.54280   0.00000   0.00000   0.00010   0.00010  -2.54270
   D16       -0.28080   0.00000   0.00000   0.00012   0.00012  -0.28068
   D17       -0.05430   0.00001   0.00000   0.00029   0.00029  -0.05401
   D18       -0.96811   0.00000   0.00000   0.00032   0.00032  -0.96779
   D19        0.92243   0.00001   0.00000   0.00032   0.00032   0.92276
   D20       -3.09875   0.00001   0.00000   0.00034   0.00034  -3.09841
         Item               Value     Threshold  Converged?
 Maximum Force            0.000140     0.000450     YES
 RMS     Force            0.000027     0.000300     YES
 Maximum Displacement     0.000910     0.001800     YES
 RMS     Displacement     0.000258     0.001200     YES
 Predicted change in Energy=-5.989845D-08
 Optimization completed.
    -- Stationary point found.
                           ----------------------------
                           !   Optimized Parameters   !
                           ! (Angstroms and Degrees)  !
 --------------------------                            --------------------------
 ! Name  Definition              Value          Derivative Info.                !
 --------------------------------------------------------------------------------
 ! R1    R(1,2)                  1.4345         -DE/DX =    0.0                 !
 ! R2    R(1,8)                  1.0075         -DE/DX =   -0.0001              !
 ! R3    R(1,9)                  1.0063         -DE/DX =    0.0                 !
 ! R4    R(2,4)                  1.8231         -DE/DX =    0.0                 !
 ! R5    R(2,6)                  1.1931         -DE/DX =    0.0                 !
 ! R6    R(2,7)                  1.3026         -DE/DX =    0.0                 !
 ! R7    R(2,11)                 1.3804         -DE/DX =    0.0                 !
 ! R8    R(3,4)                  1.4345         -DE/DX =    0.0                 !
 ! R9    R(3,5)                  1.0063         -DE/DX =    0.0                 !
 ! R10   R(3,10)                 1.0075         -DE/DX =   -0.0001              !
 ! R11   R(4,7)                  1.3804         -DE/DX =    0.0                 !
 ! R12   R(4,11)                 1.3026         -DE/DX =    0.0                 !
 ! R13   R(4,12)                 1.1931         -DE/DX =    0.0                 !
 ! A1    A(2,1,8)              124.6186         -DE/DX =    0.0                 !
 ! A2    A(2,1,9)              120.0759         -DE/DX =    0.0                 !
 ! A3    A(8,1,9)              112.9837         -DE/DX =    0.0                 !
 ! A4    A(1,2,4)              121.9932         -DE/DX =    0.0                 !
 ! A5    A(1,2,6)              119.2275         -DE/DX =    0.0                 !
 ! A6    A(1,2,7)              115.3559         -DE/DX =    0.0                 !
 ! A7    A(1,2,11)             116.9499         -DE/DX =    0.0                 !
 ! A8    A(4,2,6)              118.5514         -DE/DX =    0.0                 !
 ! A9    A(6,2,7)              107.0745         -DE/DX =    0.0                 !
 ! A10   A(6,2,11)             101.0593         -DE/DX =    0.0                 !
 ! A11   A(7,2,11)              93.3891         -DE/DX =    0.0                 !
 ! A12   A(4,3,5)              120.076          -DE/DX =    0.0                 !
 ! A13   A(4,3,10)             124.6186         -DE/DX =    0.0                 !
 ! A14   A(5,3,10)             112.9837         -DE/DX =    0.0                 !
 ! A15   A(2,4,3)              121.9932         -DE/DX =    0.0                 !
 ! A16   A(2,4,12)             118.5514         -DE/DX =    0.0                 !
 ! A17   A(3,4,7)              116.9497         -DE/DX =    0.0                 !
 ! A18   A(3,4,11)             115.3561         -DE/DX =    0.0                 !
 ! A19   A(3,4,12)             119.2275         -DE/DX =    0.0                 !
 ! A20   A(7,4,11)              93.3891         -DE/DX =    0.0                 !
 ! A21   A(7,4,12)             101.0592         -DE/DX =    0.0                 !
 ! A22   A(11,4,12)            107.0746         -DE/DX =    0.0                 !
 ! D1    D(8,1,2,4)             -3.1109         -DE/DX =    0.0                 !
 ! D2    D(8,1,2,6)           -177.5452         -DE/DX =    0.0                 !
 ! D3    D(8,1,2,7)             52.8519         -DE/DX =    0.0                 !
 ! D4    D(8,1,2,11)           -55.4683         -DE/DX =    0.0                 !
 ! D5    D(9,1,2,4)            158.345          -DE/DX =    0.0                 !
 ! D6    D(9,1,2,6)            -16.0893         -DE/DX =    0.0                 !
 ! D7    D(9,1,2,7)           -145.6923         -DE/DX =    0.0                 !
 ! D8    D(9,1,2,11)           105.9875         -DE/DX =    0.0                 !
 ! D9    D(1,2,4,3)             -0.4942         -DE/DX =    0.0                 !
 ! D10   D(1,2,4,12)           173.9764         -DE/DX =    0.0                 !
 ! D11   D(6,2,4,3)            173.9764         -DE/DX =    0.0                 !
 ! D12   D(6,2,4,12)           -11.5531         -DE/DX =    0.0                 !
 ! D13   D(5,3,4,2)            158.3458         -DE/DX =    0.0                 !
 ! D14   D(5,3,4,7)            105.9881         -DE/DX =    0.0                 !
 ! D15   D(5,3,4,11)          -145.6917         -DE/DX =    0.0                 !
 ! D16   D(5,3,4,12)           -16.0885         -DE/DX =    0.0                 !
 ! D17   D(10,3,4,2)            -3.1109         -DE/DX =    0.0                 !
 ! D18   D(10,3,4,7)           -55.4686         -DE/DX =    0.0                 !
 ! D19   D(10,3,4,11)           52.8516         -DE/DX =    0.0                 !
 ! D20   D(10,3,4,12)         -177.5452         -DE/DX =    0.0                 !
 --------------------------------------------------------------------------------
 GradGradGradGradGradGradGradGradGradGradGradGradGradGradGradGradGradGrad

                          Input orientation:                          
 ---------------------------------------------------------------------
 Center     Atomic      Atomic             Coordinates (Angstroms)
 Number     Number       Type             X           Y           Z
 ---------------------------------------------------------------------
      1          7           0       -1.671010   -0.554180   -0.044910
      2          5           0       -0.911300    0.662460   -0.021630
      3          7           0        1.671010   -0.554180    0.044910
      4          5           0        0.911300    0.662460    0.021630
      5          1           0        2.631960   -0.554460   -0.253700
      6          1           0       -1.483880    1.705140    0.070290
      7          1           0       -0.034080    0.790680   -0.975970
      8          1           0       -1.271070   -1.478030   -0.084410
      9          1           0       -2.631950   -0.554460    0.253710
     10          1           0        1.271070   -1.478030    0.084410
     11          1           0        0.034080    0.790680    0.975960
     12          1           0        1.483880    1.705140   -0.070290
 ---------------------------------------------------------------------
                    Distance matrix (angstroms):
                    1          2          3          4          5
     1  N    0.000000
     2  B    1.434543   0.000000
     3  N    3.343227   2.855340   0.000000
     4  B    2.855340   1.823113   1.434543   0.000000
     5  H    4.308033   3.753591   1.006277   2.125411   0.000000
     6  H    2.269981   1.193096   3.880529   2.612745   4.706474
     7  H    2.314100   1.302582   2.399620   1.380358   3.072270
     8  H    1.007478   2.171422   3.086431   3.058706   4.014385
     9  H    1.006270   2.125404   4.308023   3.753582   5.288309
    10  H    3.086431   3.058706   1.007478   2.171422   1.679084
    11  H    2.399616   1.380351   2.314096   1.302575   3.173397
    12  H    3.880529   2.612745   2.269981   1.193096   2.541165
                    6          7          8          9         10
     6  H    0.000000
     7  H    2.008188   0.000000
     8  H    3.194024   2.733508   0.000000
     9  H    2.541161   3.173396   1.679077   0.000000
    10  H    4.209812   2.823981   2.547739   4.014375   0.000000
    11  H    1.990145   1.953120   2.823977   3.072257   2.733505
    12  H    2.971088   1.990150   4.209812   4.706466   3.194024
                   11         12
    11  H    0.000000
    12  H    2.008182   0.000000
 Stoichiometry    B2H8N2
 Framework group  C1[X(B2H8N2)]
 Deg. of freedom    30
 Full point group                 C1      NOp   1
 Largest Abelian subgroup         C1      NOp   1
 Largest concise Abelian subgroup C1      NOp   1
                         Standard orientation:                         
 ---------------------------------------------------------------------
 Center     Atomic      Atomic             Coordinates (Angstroms)
 Number     Number       Type             X           Y           Z
 ---------------------------------------------------------------------
      1          7           0        1.671000   -0.547703    0.045292
      2          5           0        0.911295    0.668937    0.021837
      3          7           0       -1.670999   -0.547703   -0.045291
      4          5           0       -0.911295    0.668937   -0.021838
      5          1           0       -2.632018   -0.547983    0.253100
      6          1           0        1.483897    1.711617   -0.069953
      7          1           0        0.033858    0.797158    0.975977
      8          1           0        1.271051   -1.471553    0.084701
      9          1           0        2.632008   -0.547984   -0.253109
     10          1           0       -1.271051   -1.471553   -0.084699
     11          1           0       -0.033857    0.797156   -0.975968
     12          1           0       -1.483895    1.711617    0.069950
 ---------------------------------------------------------------------
 Rotational constants (GHZ):          15.5335279           4.2014337           3.4016692
 1\1\GINC-MNODE009\FOpt\UB3LYP\6-31G(d,p)\B2H8N2\MARIAHARRIS\03-Jul-202
 0\0\\# opt freq ub3lyp/6-31G(d,p) scf=(maxcycles=1024)\\something titl
 e\\0,1\N,-1.67101,-0.55418,-0.04491\B,-0.9113,0.66246,-0.02163\N,1.671
 01,-0.55418,0.04491\B,0.9113,0.66246,0.02163\H,2.63196,-0.55446,-0.253
 7\H,-1.48388,1.70514,0.07029\H,-0.03408,0.79068,-0.97597\H,-1.27107,-1
 .47803,-0.08441\H,-2.63195,-0.55446,0.25371\H,1.27107,-1.47803,0.08441
 \H,0.03408,0.79068,0.97596\H,1.48388,1.70514,-0.07029\\Version=EM64L-G
 16RevA.03\State=1-A\HF=-164.0787473\S2=0.\S2-1=0.\S2A=0.\RMSD=1.218e-0
 9\RMSF=4.615e-05\Dipole=0.0000055,-0.8742556,0.0000095\Quadrupole=1.90
 9863,0.2972655,-2.2071285,-0.0000052,-2.0121598,-0.0000034\PG=C01 [X(B
 2H8N2)]\\@


 AND ALL THIS SCIENCE I DON'T UNDERSTAND
 IT'S JUST MY JOB FIVE DAYS A WEEK

                           -- ELTON JOHN, "ROCKET MAN"
 Job cpu time:       0 days  0 hours  1 minutes 48.9 seconds.
 Elapsed time:       0 days  0 hours  0 minutes 28.0 seconds.
 File lengths (MBytes):  RWF=     10 Int=      0 D2E=      0 Chk=      2 Scr=      1
 Normal termination of Gaussian 16 at Fri Jul  3 18:41:56 2020.
 Link1:  Proceeding to internal job step number  2.
 ----------------------------------------------------------------------
 #N Geom=AllCheck Guess=TCheck SCRF=Check GenChk UB3LYP/6-31G(d,p) Freq
 ----------------------------------------------------------------------
 1/10=4,29=7,30=1,38=1,40=1/1,3;
 2/12=2,40=1/2;
 3/5=1,6=6,7=101,11=2,14=-4,25=1,30=1,70=2,71=2,74=-5,116=2,140=1/1,2,3;
 4/5=101/1;
 5/5=2,7=1024,38=6,98=1/2;
 8/6=4,10=90,11=11/1;
 11/6=1,8=1,9=11,15=111,16=1/1,2,10;
 10/6=1/2;
 6/7=2,8=2,9=2,10=2,28=1/1;
 7/8=1,10=1,25=1/1,2,3,16;
 1/10=4,30=1/3;
 99//99;
 Structure from the checkpoint file:  "/scratch/1311844/Gau-11030.chk"
 ---------------
 something title
 ---------------
 Charge =  0 Multiplicity = 1
 Redundant internal coordinates found in file.  (old form).
 N,0,-1.67101,-0.55418,-0.04491
 B,0,-0.9113,0.66246,-0.02163
 N,0,1.67101,-0.55418,0.04491
 B,0,0.9113,0.66246,0.02163
 H,0,2.63196,-0.55446,-0.2537
 H,0,-1.48388,1.70514,0.07029
 H,0,-0.03408,0.79068,-0.97597
 H,0,-1.27107,-1.47803,-0.08441
 H,0,-2.63195,-0.55446,0.25371
 H,0,1.27107,-1.47803,0.08441
 H,0,0.03408,0.79068,0.97596
 H,0,1.48388,1.70514,-0.07029
 Recover connectivity data from disk.

 GradGradGradGradGradGradGradGradGradGradGradGradGradGradGradGradGradGrad
 Berny optimization.
 Initialization pass.
                           ----------------------------
                           !    Initial Parameters    !
                           ! (Angstroms and Degrees)  !
 --------------------------                            --------------------------
 ! Name  Definition              Value          Derivative Info.                !
 --------------------------------------------------------------------------------
 ! R1    R(1,2)                  1.4345         calculate D2E/DX2 analytically  !
 ! R2    R(1,8)                  1.0075         calculate D2E/DX2 analytically  !
 ! R3    R(1,9)                  1.0063         calculate D2E/DX2 analytically  !
 ! R4    R(2,4)                  1.8231         calculate D2E/DX2 analytically  !
 ! R5    R(2,6)                  1.1931         calculate D2E/DX2 analytically  !
 ! R6    R(2,7)                  1.3026         calculate D2E/DX2 analytically  !
 ! R7    R(2,11)                 1.3804         calculate D2E/DX2 analytically  !
 ! R8    R(3,4)                  1.4345         calculate D2E/DX2 analytically  !
 ! R9    R(3,5)                  1.0063         calculate D2E/DX2 analytically  !
 ! R10   R(3,10)                 1.0075         calculate D2E/DX2 analytically  !
 ! R11   R(4,7)                  1.3804         calculate D2E/DX2 analytically  !
 ! R12   R(4,11)                 1.3026         calculate D2E/DX2 analytically  !
 ! R13   R(4,12)                 1.1931         calculate D2E/DX2 analytically  !
 ! A1    A(2,1,8)              124.6186         calculate D2E/DX2 analytically  !
 ! A2    A(2,1,9)              120.0759         calculate D2E/DX2 analytically  !
 ! A3    A(8,1,9)              112.9837         calculate D2E/DX2 analytically  !
 ! A4    A(1,2,4)              121.9932         calculate D2E/DX2 analytically  !
 ! A5    A(1,2,6)              119.2275         calculate D2E/DX2 analytically  !
 ! A6    A(1,2,7)              115.3559         calculate D2E/DX2 analytically  !
 ! A7    A(1,2,11)             116.9499         calculate D2E/DX2 analytically  !
 ! A8    A(4,2,6)              118.5514         calculate D2E/DX2 analytically  !
 ! A9    A(6,2,7)              107.0745         calculate D2E/DX2 analytically  !
 ! A10   A(6,2,11)             101.0593         calculate D2E/DX2 analytically  !
 ! A11   A(7,2,11)              93.3891         calculate D2E/DX2 analytically  !
 ! A12   A(4,3,5)              120.076          calculate D2E/DX2 analytically  !
 ! A13   A(4,3,10)             124.6186         calculate D2E/DX2 analytically  !
 ! A14   A(5,3,10)             112.9837         calculate D2E/DX2 analytically  !
 ! A15   A(2,4,3)              121.9932         calculate D2E/DX2 analytically  !
 ! A16   A(2,4,12)             118.5514         calculate D2E/DX2 analytically  !
 ! A17   A(3,4,7)              116.9497         calculate D2E/DX2 analytically  !
 ! A18   A(3,4,11)             115.3561         calculate D2E/DX2 analytically  !
 ! A19   A(3,4,12)             119.2275         calculate D2E/DX2 analytically  !
 ! A20   A(7,4,11)              93.3891         calculate D2E/DX2 analytically  !
 ! A21   A(7,4,12)             101.0592         calculate D2E/DX2 analytically  !
 ! A22   A(11,4,12)            107.0746         calculate D2E/DX2 analytically  !
 ! D1    D(8,1,2,4)             -3.1109         calculate D2E/DX2 analytically  !
 ! D2    D(8,1,2,6)           -177.5452         calculate D2E/DX2 analytically  !
 ! D3    D(8,1,2,7)             52.8519         calculate D2E/DX2 analytically  !
 ! D4    D(8,1,2,11)           -55.4683         calculate D2E/DX2 analytically  !
 ! D5    D(9,1,2,4)            158.345          calculate D2E/DX2 analytically  !
 ! D6    D(9,1,2,6)            -16.0893         calculate D2E/DX2 analytically  !
 ! D7    D(9,1,2,7)           -145.6923         calculate D2E/DX2 analytically  !
 ! D8    D(9,1,2,11)           105.9875         calculate D2E/DX2 analytically  !
 ! D9    D(1,2,4,3)             -0.4942         calculate D2E/DX2 analytically  !
 ! D10   D(1,2,4,12)           173.9764         calculate D2E/DX2 analytically  !
 ! D11   D(6,2,4,3)            173.9764         calculate D2E/DX2 analytically  !
 ! D12   D(6,2,4,12)           -11.5531         calculate D2E/DX2 analytically  !
 ! D13   D(5,3,4,2)            158.3458         calculate D2E/DX2 analytically  !
 ! D14   D(5,3,4,7)            105.9881         calculate D2E/DX2 analytically  !
 ! D15   D(5,3,4,11)          -145.6917         calculate D2E/DX2 analytically  !
 ! D16   D(5,3,4,12)           -16.0885         calculate D2E/DX2 analytically  !
 ! D17   D(10,3,4,2)            -3.1109         calculate D2E/DX2 analytically  !
 ! D18   D(10,3,4,7)           -55.4686         calculate D2E/DX2 analytically  !
 ! D19   D(10,3,4,11)           52.8516         calculate D2E/DX2 analytically  !
 ! D20   D(10,3,4,12)         -177.5452         calculate D2E/DX2 analytically  !
 --------------------------------------------------------------------------------
 Trust Radius=3.00D-01 FncErr=1.00D-07 GrdErr=1.00D-07 EigMax=2.50D+02 EigMin=1.00D-04
 Number of steps in this run=      2 maximum allowed number of steps=      2.
 GradGradGradGradGradGradGradGradGradGradGradGradGradGradGradGradGradGrad

                          Input orientation:                          
 ---------------------------------------------------------------------
 Center     Atomic      Atomic             Coordinates (Angstroms)
 Number     Number       Type             X           Y           Z
 ---------------------------------------------------------------------
      1          7           0       -1.671010   -0.554180   -0.044910
      2          5           0       -0.911300    0.662460   -0.021630
      3          7           0        1.671010   -0.554180    0.044910
      4          5           0        0.911300    0.662460    0.021630
      5          1           0        2.631960   -0.554460   -0.253700
      6          1           0       -1.483880    1.705140    0.070290
      7          1           0       -0.034080    0.790680   -0.975970
      8          1           0       -1.271070   -1.478030   -0.084410
      9          1           0       -2.631950   -0.554460    0.253710
     10          1           0        1.271070   -1.478030    0.084410
     11          1           0        0.034080    0.790680    0.975960
     12          1           0        1.483880    1.705140   -0.070290
 ---------------------------------------------------------------------
                    Distance matrix (angstroms):
                    1          2          3          4          5
     1  N    0.000000
     2  B    1.434543   0.000000
     3  N    3.343227   2.855340   0.000000
     4  B    2.855340   1.823113   1.434543   0.000000
     5  H    4.308033   3.753591   1.006277   2.125411   0.000000
     6  H    2.269981   1.193096   3.880529   2.612745   4.706474
     7  H    2.314100   1.302582   2.399620   1.380358   3.072270
     8  H    1.007478   2.171422   3.086431   3.058706   4.014385
     9  H    1.006270   2.125404   4.308023   3.753582   5.288309
    10  H    3.086431   3.058706   1.007478   2.171422   1.679084
    11  H    2.399616   1.380351   2.314096   1.302575   3.173397
    12  H    3.880529   2.612745   2.269981   1.193096   2.541165
                    6          7          8          9         10
     6  H    0.000000
     7  H    2.008188   0.000000
     8  H    3.194024   2.733508   0.000000
     9  H    2.541161   3.173396   1.679077   0.000000
    10  H    4.209812   2.823981   2.547739   4.014375   0.000000
    11  H    1.990145   1.953120   2.823977   3.072257   2.733505
    12  H    2.971088   1.990150   4.209812   4.706466   3.194024
                   11         12
    11  H    0.000000
    12  H    2.008182   0.000000
 Stoichiometry    B2H8N2
 Framework group  C1[X(B2H8N2)]
 Deg. of freedom    30
 Full point group                 C1      NOp   1
 Largest Abelian subgroup         C1      NOp   1
 Largest concise Abelian subgroup C1      NOp   1
                         Standard orientation:                         
 ---------------------------------------------------------------------
 Center     Atomic      Atomic             Coordinates (Angstroms)
 Number     Number       Type             X           Y           Z
 ---------------------------------------------------------------------
      1          7           0        1.671000   -0.547703    0.045292
      2          5           0        0.911295    0.668937    0.021837
      3          7           0       -1.670999   -0.547703   -0.045291
      4          5           0       -0.911295    0.668937   -0.021838
      5          1           0       -2.632018   -0.547983    0.253100
      6          1           0        1.483897    1.711617   -0.069953
      7          1           0        0.033858    0.797158    0.975977
      8          1           0        1.271051   -1.471553    0.084701
      9          1           0        2.632008   -0.547984   -0.253109
     10          1           0       -1.271051   -1.471553   -0.084699
     11          1           0       -0.033857    0.797156   -0.975968
     12          1           0       -1.483895    1.711617    0.069950
 ---------------------------------------------------------------------
 Rotational constants (GHZ):          15.5335279           4.2014337           3.4016692
 Standard basis: 6-31G(d,p) (6D, 7F)
 There are   100 symmetry adapted cartesian basis functions of A   symmetry.
 There are   100 symmetry adapted basis functions of A   symmetry.
   100 basis functions,   168 primitive gaussians,   100 cartesian basis functions
    16 alpha electrons       16 beta electrons
       nuclear repulsion energy       111.9017653921 Hartrees.
 NAtoms=   12 NActive=   12 NUniq=   12 SFac= 1.00D+00 NAtFMM=   60 NAOKFM=F Big=F
 Integral buffers will be    131072 words long.
 Raffenetti 2 integral format.
 Two-electron integral symmetry is turned on.
 One-electron integrals computed using PRISM.
 NBasis=   100 RedAO= T EigKep=  4.09D-03  NBF=   100
 NBsUse=   100 1.00D-06 EigRej= -1.00D+00 NBFU=   100
 Initial guess from the checkpoint file:  "/scratch/1311844/Gau-11030.chk"
 B after Tr=    -0.000000   -0.000000   -0.000000
         Rot=    1.000000    0.000000   -0.000000    0.000000 Ang=   0.00 deg.
 Initial guess <Sx>= 0.0000 <Sy>= 0.0000 <Sz>= 0.0000 <S**2>= 0.0000 S= 0.0000
 Keep R1 and R2 ints in memory in canonical form, NReq=29209894.
 Requested convergence on RMS density matrix=1.00D-08 within1024 cycles.
 Requested convergence on MAX density matrix=1.00D-06.
 Requested convergence on             energy=1.00D-06.
 No special actions if energy rises.
 SCF Done:  E(UB3LYP) =  -164.078747317     A.U. after    1 cycles
            NFock=  1  Conv=0.34D-09     -V/T= 2.0099
 <Sx>= 0.0000 <Sy>= 0.0000 <Sz>= 0.0000 <S**2>= 0.0000 S= 0.0000
 <L.S>= 0.000000000000E+00
 Annihilation of the first spin contaminant:
 S**2 before annihilation     0.0000,   after     0.0000
 DoSCS=F DFT=T ScalE2(SS,OS)=  1.000000  1.000000
 Range of M.O.s used for correlation:     1   100
 NBasis=   100 NAE=    16 NBE=    16 NFC=     0 NFV=     0
 NROrb=    100 NOA=    16 NOB=    16 NVA=    84 NVB=    84
 Symmetrizing basis deriv contribution to polar:
 IMax=3 JMax=2 DiffMx= 0.00D+00
 G2DrvN: will do    13 centers at a time, making    1 passes.
 Calling FoFCou, ICntrl=  3107 FMM=F I1Cent=   0 AccDes= 0.00D+00.
 End of G2Drv F.D. properties file   721 does not exist.
 End of G2Drv F.D. properties file   722 does not exist.
 End of G2Drv F.D. properties file   788 does not exist.
          IDoAtm=111111111111
          Differentiating once with respect to electric field.
                with respect to dipole field.
          Differentiating once with respect to nuclear coordinates.
 Keep R1 and R2 ints in memory in canonical form, NReq=29207839.
          There are    39 degrees of freedom in the 1st order CPHF.  IDoFFX=6 NUNeed=     3.
     36 vectors produced by pass  0 Test12= 6.89D-15 2.56D-09 XBig12= 8.56D+01 4.08D+00.
 AX will form    36 AO Fock derivatives at one time.
     36 vectors produced by pass  1 Test12= 6.89D-15 2.56D-09 XBig12= 3.23D+00 2.66D-01.
     36 vectors produced by pass  2 Test12= 6.89D-15 2.56D-09 XBig12= 2.17D-02 2.17D-02.
     36 vectors produced by pass  3 Test12= 6.89D-15 2.56D-09 XBig12= 2.17D-05 6.86D-04.
     36 vectors produced by pass  4 Test12= 6.89D-15 2.56D-09 XBig12= 1.58D-08 1.95D-05.
     13 vectors produced by pass  5 Test12= 6.89D-15 2.56D-09 XBig12= 1.08D-11 4.26D-07.
      3 vectors produced by pass  6 Test12= 6.89D-15 2.56D-09 XBig12= 4.94D-15 7.97D-09.
 InvSVY:  IOpt=1 It=  1 EMax= 4.44D-15
 Solved reduced A of dimension   196 with    39 vectors.
 Isotropic polarizability for W=    0.000000       41.83 Bohr**3.
 End of Minotr F.D. properties file   721 does not exist.
 End of Minotr F.D. properties file   722 does not exist.
 End of Minotr F.D. properties file   788 does not exist.

 **********************************************************************

            Population analysis using the SCF density.

 **********************************************************************

 Orbital symmetries:
 Alpha Orbitals:
       Occupied  (A) (A) (A) (A) (A) (A) (A) (A) (A) (A) (A) (A)
                 (A) (A) (A) (A)
       Virtual   (A) (A) (A) (A) (A) (A) (A) (A) (A) (A) (A) (A)
                 (A) (A) (A) (A) (A) (A) (A) (A) (A) (A) (A) (A)
                 (A) (A) (A) (A) (A) (A) (A) (A) (A) (A) (A) (A)
                 (A) (A) (A) (A) (A) (A) (A) (A) (A) (A) (A) (A)
                 (A) (A) (A) (A) (A) (A) (A) (A) (A) (A) (A) (A)
                 (A) (A) (A) (A) (A) (A) (A) (A) (A) (A) (A) (A)
                 (A) (A) (A) (A) (A) (A) (A) (A) (A) (A) (A) (A)
 Beta  Orbitals:
       Occupied  (A) (A) (A) (A) (A) (A) (A) (A) (A) (A) (A) (A)
                 (A) (A) (A) (A)
       Virtual   (A) (A) (A) (A) (A) (A) (A) (A) (A) (A) (A) (A)
                 (A) (A) (A) (A) (A) (A) (A) (A) (A) (A) (A) (A)
                 (A) (A) (A) (A) (A) (A) (A) (A) (A) (A) (A) (A)
                 (A) (A) (A) (A) (A) (A) (A) (A) (A) (A) (A) (A)
                 (A) (A) (A) (A) (A) (A) (A) (A) (A) (A) (A) (A)
                 (A) (A) (A) (A) (A) (A) (A) (A) (A) (A) (A) (A)
                 (A) (A) (A) (A) (A) (A) (A) (A) (A) (A) (A) (A)
 The electronic state is 1-A.
 Alpha  occ. eigenvalues --  -14.30489 -14.30489  -6.75226  -6.75206  -0.84619
 Alpha  occ. eigenvalues --   -0.83691  -0.61842  -0.49631  -0.49045  -0.46603
 Alpha  occ. eigenvalues --   -0.43376  -0.39853  -0.34430  -0.33354  -0.26687
 Alpha  occ. eigenvalues --   -0.22191
 Alpha virt. eigenvalues --    0.05098   0.05810   0.10666   0.12032   0.13739
 Alpha virt. eigenvalues --    0.16710   0.18422   0.20830   0.24010   0.28283
 Alpha virt. eigenvalues --    0.28830   0.36483   0.39309   0.43835   0.48256
 Alpha virt. eigenvalues --    0.52007   0.53922   0.60463   0.67103   0.71231
 Alpha virt. eigenvalues --    0.73659   0.75149   0.78329   0.79874   0.82347
 Alpha virt. eigenvalues --    0.85667   0.85698   0.87456   0.90232   0.92977
 Alpha virt. eigenvalues --    0.96407   0.97102   1.09913   1.11529   1.16356
 Alpha virt. eigenvalues --    1.23378   1.34102   1.36316   1.38094   1.44759
 Alpha virt. eigenvalues --    1.45672   1.55842   1.60060   1.61625   1.67914
 Alpha virt. eigenvalues --    1.83650   1.84414   1.85425   1.99914   2.01136
 Alpha virt. eigenvalues --    2.09981   2.14303   2.16696   2.19677   2.22196
 Alpha virt. eigenvalues --    2.26850   2.34718   2.37591   2.40059   2.52000
 Alpha virt. eigenvalues --    2.52893   2.53357   2.59496   2.60279   2.62157
 Alpha virt. eigenvalues --    2.66733   2.69926   2.75526   2.81196   2.82395
 Alpha virt. eigenvalues --    2.95242   2.96217   3.03317   3.07492   3.21026
 Alpha virt. eigenvalues --    3.22442   3.30209   3.36403   3.52354   3.60810
 Alpha virt. eigenvalues --    3.61349   3.80929   4.24798   4.27762
  Beta  occ. eigenvalues --  -14.30489 -14.30489  -6.75226  -6.75206  -0.84619
  Beta  occ. eigenvalues --   -0.83691  -0.61842  -0.49631  -0.49045  -0.46603
  Beta  occ. eigenvalues --   -0.43376  -0.39853  -0.34430  -0.33354  -0.26687
  Beta  occ. eigenvalues --   -0.22191
  Beta virt. eigenvalues --    0.05098   0.05810   0.10666   0.12032   0.13739
  Beta virt. eigenvalues --    0.16710   0.18422   0.20830   0.24010   0.28283
  Beta virt. eigenvalues --    0.28830   0.36483   0.39309   0.43835   0.48256
  Beta virt. eigenvalues --    0.52007   0.53922   0.60463   0.67103   0.71231
  Beta virt. eigenvalues --    0.73659   0.75149   0.78329   0.79874   0.82347
  Beta virt. eigenvalues --    0.85667   0.85698   0.87456   0.90232   0.92977
  Beta virt. eigenvalues --    0.96407   0.97102   1.09913   1.11529   1.16356
  Beta virt. eigenvalues --    1.23378   1.34102   1.36316   1.38094   1.44759
  Beta virt. eigenvalues --    1.45672   1.55842   1.60060   1.61625   1.67914
  Beta virt. eigenvalues --    1.83650   1.84414   1.85425   1.99914   2.01136
  Beta virt. eigenvalues --    2.09981   2.14303   2.16696   2.19677   2.22196
  Beta virt. eigenvalues --    2.26850   2.34718   2.37591   2.40059   2.52000
  Beta virt. eigenvalues --    2.52893   2.53357   2.59496   2.60279   2.62157
  Beta virt. eigenvalues --    2.66733   2.69926   2.75526   2.81196   2.82395
  Beta virt. eigenvalues --    2.95242   2.96217   3.03317   3.07492   3.21026
  Beta virt. eigenvalues --    3.22442   3.30209   3.36403   3.52354   3.60810
  Beta virt. eigenvalues --    3.61349   3.80929   4.24798   4.27762
          Condensed to atoms (all electrons):
               1          2          3          4          5          6
     1  N    6.547698   0.455315  -0.002348  -0.009865   0.000011  -0.025688
     2  B    0.455315   3.502897  -0.009865   0.153435   0.001201   0.403291
     3  N   -0.002348  -0.009865   6.547701   0.455315   0.364653   0.001352
     4  B   -0.009865   0.153435   0.455315   3.502896  -0.031037  -0.023771
     5  H    0.000011   0.001201   0.364653  -0.031037   0.447119  -0.000036
     6  H   -0.025688   0.403291   0.001352  -0.023771  -0.000036   0.724828
     7  H   -0.024232   0.230172  -0.031932   0.153739   0.000086  -0.010913
     8  H    0.356592  -0.040172   0.001787  -0.004295  -0.000060   0.003562
     9  H    0.364654  -0.031038   0.000011   0.001202  -0.000000  -0.003521
    10  H    0.001787  -0.004295   0.356592  -0.040172  -0.030628   0.000030
    11  H   -0.031932   0.153739  -0.024231   0.230171   0.001892  -0.007770
    12  H    0.001352  -0.023771  -0.025688   0.403291  -0.003521  -0.000498
               7          8          9         10         11         12
     1  N   -0.024232   0.356592   0.364654   0.001787  -0.031932   0.001352
     2  B    0.230172  -0.040172  -0.031038  -0.004295   0.153739  -0.023771
     3  N   -0.031932   0.001787   0.000011   0.356592  -0.024231  -0.025688
     4  B    0.153739  -0.004295   0.001202  -0.040172   0.230171   0.403291
     5  H    0.000086  -0.000060  -0.000000  -0.030628   0.001892  -0.003521
     6  H   -0.010913   0.003562  -0.003521   0.000030  -0.007770  -0.000498
     7  H    0.785799  -0.001133   0.001892  -0.000287  -0.093778  -0.007770
     8  H   -0.001133   0.476140  -0.030628   0.002016  -0.000287   0.000030
     9  H    0.001892  -0.030628   0.447118  -0.000060   0.000086  -0.000036
    10  H   -0.000287   0.002016  -0.000060   0.476140  -0.001133   0.003562
    11  H   -0.093778  -0.000287   0.000086  -0.001133   0.785800  -0.010913
    12  H   -0.007770   0.000030  -0.000036   0.003562  -0.010913   0.724828
          Atomic-Atomic Spin Densities.
               1          2          3          4          5          6
     1  N    0.000000   0.000000   0.000000  -0.000000   0.000000   0.000000
     2  B    0.000000   0.000000   0.000000  -0.000000  -0.000000   0.000000
     3  N    0.000000   0.000000   0.000000   0.000000  -0.000000  -0.000000
     4  B   -0.000000  -0.000000   0.000000  -0.000000   0.000000   0.000000
     5  H    0.000000  -0.000000  -0.000000   0.000000  -0.000000  -0.000000
     6  H    0.000000   0.000000  -0.000000   0.000000  -0.000000  -0.000000
     7  H    0.000000  -0.000000   0.000000  -0.000000   0.000000  -0.000000
     8  H   -0.000000  -0.000000  -0.000000   0.000000   0.000000  -0.000000
     9  H   -0.000000  -0.000000   0.000000  -0.000000   0.000000   0.000000
    10  H    0.000000   0.000000   0.000000  -0.000000  -0.000000   0.000000
    11  H    0.000000  -0.000000  -0.000000   0.000000  -0.000000  -0.000000
    12  H   -0.000000   0.000000   0.000000  -0.000000   0.000000  -0.000000
               7          8          9         10         11         12
     1  N    0.000000  -0.000000  -0.000000   0.000000   0.000000  -0.000000
     2  B   -0.000000  -0.000000  -0.000000   0.000000  -0.000000   0.000000
     3  N    0.000000  -0.000000   0.000000   0.000000  -0.000000   0.000000
     4  B   -0.000000   0.000000  -0.000000  -0.000000   0.000000  -0.000000
     5  H    0.000000   0.000000   0.000000  -0.000000  -0.000000   0.000000
     6  H   -0.000000  -0.000000   0.000000   0.000000  -0.000000  -0.000000
     7  H    0.000000   0.000000   0.000000   0.000000   0.000000   0.000000
     8  H    0.000000   0.000000  -0.000000   0.000000  -0.000000   0.000000
     9  H    0.000000  -0.000000   0.000000   0.000000   0.000000  -0.000000
    10  H    0.000000   0.000000   0.000000   0.000000  -0.000000  -0.000000
    11  H    0.000000  -0.000000   0.000000  -0.000000  -0.000000  -0.000000
    12  H    0.000000   0.000000  -0.000000  -0.000000  -0.000000   0.000000
 Mulliken charges and spin densities:
               1          2
     1  N   -0.633347   0.000000
     2  B    0.209091   0.000000
     3  N   -0.633348   0.000000
     4  B    0.209092  -0.000000
     5  H    0.250320  -0.000000
     6  H   -0.060868  -0.000000
     7  H   -0.001644   0.000000
     8  H    0.236448   0.000000
     9  H    0.250319  -0.000000
    10  H    0.236448  -0.000000
    11  H   -0.001643  -0.000000
    12  H   -0.060868   0.000000
 Sum of Mulliken charges =   0.00000   0.00000
 Mulliken charges and spin densities with hydrogens summed into heavy atoms:
               1          2
     1  N   -0.146580   0.000000
     2  B    0.146579   0.000000
     3  N   -0.146580   0.000000
     4  B    0.146581  -0.000000
 APT charges:
               1
     1  N   -0.723890
     2  B    0.781435
     3  N   -0.723889
     4  B    0.781435
     5  H    0.195807
     6  H   -0.164167
     7  H   -0.259283
     8  H    0.170097
     9  H    0.195808
    10  H    0.170097
    11  H   -0.259283
    12  H   -0.164167
 Sum of APT charges =   0.00000
 APT charges with hydrogens summed into heavy atoms:
               1
     1  N   -0.357985
     2  B    0.357985
     3  N   -0.357985
     4  B    0.357985
 Electronic spatial extent (au):  <R**2>=            385.4916
 Charge=              0.0000 electrons
 Dipole moment (field-independent basis, Debye):
    X=             -0.0000    Y=             -2.2221    Z=             -0.0000  Tot=              2.2221
 Quadrupole moment (field-independent basis, Debye-Ang):
   XX=            -23.4208   YY=            -25.5910   ZZ=            -28.9607
   XY=              0.0000   XZ=             -2.7052   YZ=              0.0000
 Traceless Quadrupole moment (field-independent basis, Debye-Ang):
   XX=              2.5701   YY=              0.3998   ZZ=             -2.9699
   XY=              0.0000   XZ=             -2.7052   YZ=              0.0000
 Octapole moment (field-independent basis, Debye-Ang**2):
  XXX=             -0.0003  YYY=            -21.1836  ZZZ=             -0.0000  XYY=              0.0000
  XXY=            -10.9477  XXZ=             -0.0001  XZZ=              0.0000  YZZ=             -2.0049
  YYZ=             -0.0000  XYZ=              1.3027
 Hexadecapole moment (field-independent basis, Debye-Ang**3):
 XXXX=           -270.3940 YYYY=           -129.4673 ZZZZ=            -39.8655 XXXY=              0.0001
 XXXZ=            -20.6171 YYYX=             -0.0000 YYYZ=             -0.0000 ZZZX=             -2.2616
 ZZZY=             -0.0000 XXYY=            -77.7901 XXZZ=            -70.6063 YYZZ=            -30.2229
 XXYZ=              0.0001 YYXZ=             -0.5821 ZZXY=             -0.0000
 N-N= 1.119017653921D+02 E-N=-6.041279977822D+02  KE= 1.624697350843D+02
  Exact polarizability:  55.590   0.000  42.745  -0.887   0.000  27.157
 Approx polarizability:  72.425   0.000  56.819  -0.042   0.000  39.584
                          Isotropic Fermi Contact Couplings
        Atom                 a.u.       MegaHertz       Gauss      10(-4) cm-1
     1  N(14)              0.00000       0.00000       0.00000       0.00000
     2  B(11)              0.00000       0.00000       0.00000       0.00000
     3  N(14)              0.00000       0.00000       0.00000       0.00000
     4  B(11)              0.00000       0.00000       0.00000       0.00000
     5  H(1)              -0.00000      -0.00000      -0.00000      -0.00000
     6  H(1)              -0.00000      -0.00000      -0.00000      -0.00000
     7  H(1)               0.00000       0.00000       0.00000       0.00000
     8  H(1)               0.00000       0.00000       0.00000       0.00000
     9  H(1)               0.00000       0.00000       0.00000       0.00000
    10  H(1)               0.00000       0.00000       0.00000       0.00000
    11  H(1)               0.00000       0.00000       0.00000       0.00000
    12  H(1)              -0.00000      -0.00000      -0.00000      -0.00000
 --------------------------------------------------------
       Center         ----  Spin Dipole Couplings  ----
                      3XX-RR        3YY-RR        3ZZ-RR
 --------------------------------------------------------
     1   Atom        0.000000      0.000000      0.000000
     2   Atom        0.000000      0.000000      0.000000
     3   Atom        0.000000      0.000000      0.000000
     4   Atom        0.000000      0.000000      0.000000
     5   Atom        0.000000      0.000000      0.000000
     6   Atom        0.000000      0.000000      0.000000
     7   Atom        0.000000      0.000000      0.000000
     8   Atom        0.000000      0.000000      0.000000
     9   Atom        0.000000      0.000000      0.000000
    10   Atom        0.000000      0.000000      0.000000
    11   Atom        0.000000      0.000000      0.000000
    12   Atom        0.000000      0.000000      0.000000
 --------------------------------------------------------
                        XY            XZ            YZ
 --------------------------------------------------------
     1   Atom        0.000000      0.000000      0.000000
     2   Atom        0.000000      0.000000      0.000000
     3   Atom        0.000000      0.000000      0.000000
     4   Atom        0.000000      0.000000      0.000000
     5   Atom        0.000000      0.000000      0.000000
     6   Atom        0.000000      0.000000      0.000000
[...]
   D13        2.76366   0.00000   0.00000   0.00766   0.00767   2.77132
   D14        1.84984   0.00000   0.00000   0.00465   0.00465   1.85449
   D15       -2.54280   0.00000   0.00000   0.00580   0.00580  -2.53700
   D16       -0.28080   0.00000   0.00000  -0.00032  -0.00032  -0.28112
   D17       -0.05430   0.00001   0.00000   0.02266   0.02266  -0.03164
   D18       -0.96811   0.00000   0.00000   0.01964   0.01964  -0.94847
   D19        0.92243   0.00001   0.00000   0.02080   0.02079   0.94323
   D20       -3.09875   0.00001   0.00000   0.01467   0.01467  -3.08408
         Item               Value     Threshold  Converged?
 Maximum Force            0.000140     0.000450     YES
 RMS     Force            0.000027     0.000300     YES
 Maximum Displacement     0.033042     0.001800     NO 
 RMS     Displacement     0.007346     0.001200     NO 
 Predicted change in Energy=-1.796302D-06
                           ----------------------------
                           ! Non-Optimized Parameters !
                           ! (Angstroms and Degrees)  !
 --------------------------                            --------------------------
 ! Name  Definition              Value          Derivative Info.                !
 --------------------------------------------------------------------------------
 ! R1    R(1,2)                  1.4348         -DE/DX =    0.0                 !
 ! R2    R(1,8)                  1.0074         -DE/DX =   -0.0001              !
 ! R3    R(1,9)                  1.0063         -DE/DX =    0.0                 !
 ! R4    R(2,4)                  1.8218         -DE/DX =    0.0                 !
 ! R5    R(2,6)                  1.1931         -DE/DX =    0.0                 !
 ! R6    R(2,7)                  1.3044         -DE/DX =    0.0                 !
 ! R7    R(2,11)                 1.3772         -DE/DX =    0.0                 !
 ! R8    R(3,4)                  1.4348         -DE/DX =    0.0                 !
 ! R9    R(3,5)                  1.0063         -DE/DX =    0.0                 !
 ! R10   R(3,10)                 1.0074         -DE/DX =   -0.0001              !
 ! R11   R(4,7)                  1.3772         -DE/DX =    0.0                 !
 ! R12   R(4,11)                 1.3044         -DE/DX =    0.0                 !
 ! R13   R(4,12)                 1.1931         -DE/DX =    0.0                 !
 ! A1    A(2,1,8)              124.5821         -DE/DX =    0.0                 !
 ! A2    A(2,1,9)              119.9543         -DE/DX =    0.0                 !
 ! A3    A(8,1,9)              112.9188         -DE/DX =    0.0                 !
 ! A4    A(1,2,4)              122.0932         -DE/DX =    0.0                 !
 ! A5    A(1,2,6)              119.193          -DE/DX =    0.0                 !
 ! A6    A(1,2,7)              115.3613         -DE/DX =    0.0                 !
 ! A7    A(1,2,11)             116.9743         -DE/DX =    0.0                 !
 ! A8    A(4,2,6)              118.5221         -DE/DX =    0.0                 !
 ! A9    A(6,2,7)              106.8709         -DE/DX =    0.0                 !
 ! A10   A(6,2,11)             101.2561         -DE/DX =    0.0                 !
 ! A11   A(7,2,11)              93.4246         -DE/DX =    0.0                 !
 ! A12   A(4,3,5)              119.9543         -DE/DX =    0.0                 !
 ! A13   A(4,3,10)             124.5821         -DE/DX =    0.0                 !
 ! A14   A(5,3,10)             112.9188         -DE/DX =    0.0                 !
 ! A15   A(2,4,3)              122.0932         -DE/DX =    0.0                 !
 ! A16   A(2,4,12)             118.5221         -DE/DX =    0.0                 !
 ! A17   A(3,4,7)              116.9743         -DE/DX =    0.0                 !
 ! A18   A(3,4,11)             115.3612         -DE/DX =    0.0                 !
 ! A19   A(3,4,12)             119.193          -DE/DX =    0.0                 !
 ! A20   A(7,4,11)              93.4246         -DE/DX =    0.0                 !
 ! A21   A(7,4,12)             101.2561         -DE/DX =    0.0                 !
 ! A22   A(11,4,12)            106.8709         -DE/DX =    0.0                 !
 ! D1    D(8,1,2,4)             -1.8128         -DE/DX =    0.0                 !
 ! D2    D(8,1,2,6)           -176.7047         -DE/DX =    0.0                 !
 ! D3    D(8,1,2,7)             54.043          -DE/DX =    0.0                 !
 ! D4    D(8,1,2,11)           -54.3435         -DE/DX =    0.0                 !
 ! D5    D(9,1,2,4)            158.7851         -DE/DX =    0.0                 !
 ! D6    D(9,1,2,6)            -16.1068         -DE/DX =    0.0                 !
 ! D7    D(9,1,2,7)           -145.3591         -DE/DX =    0.0                 !
 ! D8    D(9,1,2,11)           106.2544         -DE/DX =    0.0                 !
 ! D9    D(1,2,4,3)             -0.6282         -DE/DX =    0.0                 !
 ! D10   D(1,2,4,12)           174.2967         -DE/DX =    0.0                 !
 ! D11   D(6,2,4,3)            174.2967         -DE/DX =    0.0                 !
 ! D12   D(6,2,4,12)           -10.7784         -DE/DX =    0.0                 !
 ! D13   D(5,3,4,2)            158.7851         -DE/DX =    0.0                 !
 ! D14   D(5,3,4,7)            106.2543         -DE/DX =    0.0                 !
 ! D15   D(5,3,4,11)          -145.3592         -DE/DX =    0.0                 !
 ! D16   D(5,3,4,12)           -16.1069         -DE/DX =    0.0                 !
 ! D17   D(10,3,4,2)            -1.8127         -DE/DX =    0.0                 !
 ! D18   D(10,3,4,7)           -54.3435         -DE/DX =    0.0                 !
 ! D19   D(10,3,4,11)           54.043          -DE/DX =    0.0                 !
 ! D20   D(10,3,4,12)         -176.7047         -DE/DX =    0.0                 !
 --------------------------------------------------------------------------------
 GradGradGradGradGradGradGradGradGradGradGradGradGradGradGradGradGradGrad


 ----------------------------------------------------------------------

 Electric dipole moment (input orientation):
 (Debye = 10**-18 statcoulomb cm , SI units = C m)
                  (au)            (Debye)         (10**-30 SI)
   Tot        0.874255D+00      0.222214D+01      0.741225D+01
   x          0.000000D+00      0.000000D+00      0.000000D+00
   y         -0.874255D+00     -0.222214D+01     -0.741225D+01
   z          0.000000D+00      0.000000D+00      0.000000D+00

 Dipole polarizability, Alpha (input orientation).
 (esu units = cm**3 , SI units = C**2 m**2 J**-1)
 Alpha(0;0):
               (au)            (10**-24 esu)      (10**-40 SI)
   iso        0.418304D+02      0.619862D+01      0.689690D+01
   aniso      0.247097D+02      0.366160D+01      0.407408D+01
   xx         0.555893D+02      0.823748D+01      0.916543D+01
   yx        -0.305233D-04     -0.452309D-05     -0.503262D-05
   yy         0.427448D+02      0.633413D+01      0.704767D+01
   zx        -0.893762D+00     -0.132442D+00     -0.147361D+00
   zy        -0.143744D-04     -0.213007D-05     -0.237002D-05
   zz         0.271571D+02      0.402427D+01      0.447760D+01

 ----------------------------------------------------------------------

 Dipole orientation:
     7         -3.15775730         -0.08489881          1.04722764
     5         -1.72209929         -0.04087204         -1.25187924
     7          3.15774413          0.08487611          1.04726921
     5          1.72211503          0.04089918         -1.25185669
     1          4.97368000         -0.47940359          1.04780363
     1         -2.80410737          0.13284614         -3.22226380
     1         -0.06438087         -1.84430021         -1.49418905
     1         -2.40199075         -0.15955717          2.79305507
     1         -4.97367428          0.47939977          1.04775146
     1          2.40195561          0.15949661          2.79308874
     1          0.06439966          1.84431371         -1.49414826
     1          2.80414790         -0.13277628         -3.22223141

 Electric dipole moment (dipole orientation):
 (Debye = 10**-18 statcoulomb cm , SI units = C m)
                  (au)            (Debye)         (10**-30 SI)
   Tot        0.874255D+00      0.222214D+01      0.741225D+01
   x          0.000000D+00      0.000000D+00      0.000000D+00
   y          0.000000D+00      0.000000D+00      0.000000D+00
   z          0.874255D+00      0.222214D+01      0.741225D+01

 Dipole polarizability, Alpha (dipole orientation).
 (esu units = cm**3 , SI units = C**2 m**2 J**-1)
 Alpha(0;0):
               (au)            (10**-24 esu)      (10**-40 SI)
   iso        0.418304D+02      0.619862D+01      0.689690D+01
   aniso      0.247097D+02      0.366160D+01      0.407408D+01
   xx         0.555893D+02      0.823748D+01      0.916543D+01
   yx        -0.893583D+00     -0.132415D+00     -0.147332D+00
   yy         0.271571D+02      0.402426D+01      0.447760D+01
   zx         0.101627D-03      0.150595D-04      0.167560D-04
   zy        -0.160214D-03     -0.237413D-04     -0.264157D-04
   zz         0.427448D+02      0.633413D+01      0.704767D+01

 ----------------------------------------------------------------------
 1\1\GINC-MNODE009\Freq\UB3LYP\6-31G(d,p)\B2H8N2\MARIAHARRIS\03-Jul-202
 0\0\\#N Geom=AllCheck Guess=TCheck SCRF=Check GenChk UB3LYP/6-31G(d,p)
  Freq\\something title\\0,1\N,-1.67101,-0.55418,-0.04491\B,-0.9113,0.6
 6246,-0.02163\N,1.67101,-0.55418,0.04491\B,0.9113,0.66246,0.02163\H,2.
 63196,-0.55446,-0.2537\H,-1.48388,1.70514,0.07029\H,-0.03408,0.79068,-
 0.97597\H,-1.27107,-1.47803,-0.08441\H,-2.63195,-0.55446,0.25371\H,1.2
 7107,-1.47803,0.08441\H,0.03408,0.79068,0.97596\H,1.48388,1.70514,-0.0
 7029\\Version=EM64L-G16RevA.03\State=1-A\HF=-164.0787473\S2=0.\S2-1=0.
 \S2A=0.\RMSD=3.398e-10\RMSF=4.615e-05\ZeroPoint=0.0984672\Thermal=0.10
 45603\Dipole=0.0000055,-0.8742554,0.0000095\DipoleDeriv=-0.801867,-0.2
 613036,-0.1136187,-0.5828018,-0.6869945,-0.0239254,-0.1723742,-0.04060
 96,-0.6828092,1.2672514,0.3674928,0.0687401,0.5265798,0.7412838,0.0481
 296,0.0378289,0.0853274,0.3357687,-0.8018596,0.2613024,-0.1136177,0.58
 28033,-0.6869955,0.0239273,-0.1723713,0.0406079,-0.6828107,1.2672511,-
 0.3674927,0.0687487,-0.526582,0.7412844,-0.0481314,0.0378361,-0.085329
 8,0.3357691,0.1657314,-0.0080622,0.0492381,0.0442706,0.1440226,0.00609
 92,0.1059336,-0.0077819,0.2776665,-0.19865,0.078071,0.004866,0.0754722
 ,-0.23361,-0.0060002,0.0008379,-0.0336033,-0.0602401,-0.5703457,0.0384
 211,-0.0364631,0.0253431,-0.033056,0.0101376,-0.0187846,0.0027593,-0.1
 74447,0.1378764,0.051559,0.0272328,0.0533564,0.068354,0.0002486,0.0465
 523,0.0392849,0.3040613,0.1657354,0.0080629,0.0492396,-0.0442707,0.144
 0221,-0.0060991,0.1059374,0.0077827,0.2776655,0.1378742,-0.0515584,0.0
 272321,-0.0533555,0.0683544,-0.0002485,0.0465516,-0.0392832,0.3040619,
 -0.5703478,-0.0384209,-0.0364634,-0.0253434,-0.0330553,-0.0101373,-0.0
 187853,-0.0027573,-0.174446,-0.1986496,-0.0780713,0.0048654,-0.075472,
 -0.2336102,0.0059996,0.0008378,0.0336029,-0.0602401\Polar=55.5892522,-
 0.0000305,42.7448213,-0.8937616,-0.0000144,27.1570967\Quadrupole=1.909
 8632,0.2972655,-2.2071287,-0.0000052,-2.0121598,-0.0000034\PG=C01 [X(B
 2H8N2)]\NImag=1\\0.71050348,-0.01197341,0.73180990,-0.15975364,0.01602
 426,0.06239538,-0.13704605,-0.09424351,0.01546651,0.36193966,-0.102453
 60,-0.25408028,0.00225974,0.02364925,0.51227427,0.00701539,-0.00591292
 ,-0.02940120,-0.04969625,0.01103006,0.15556147,-0.00107555,-0.00495702
 ,-0.00014979,0.00203527,0.01949861,-0.00102195,0.71048816,0.00495707,0
 .00749444,0.00072704,-0.01138861,-0.00600650,0.00442074,0.01197348,0.7
 3181282,-0.00014980,-0.00072703,0.00153134,0.00010208,0.00074141,-0.01
 069987,-0.15974126,-0.01602470,0.06239219,0.00203531,0.01138858,0.0001
 0218,-0.08570543,-0.01618402,0.01158370,-0.13704610,0.09424348,0.01546
 585,0.36194062,-0.01949867,-0.00600651,-0.00074141,0.01618407,-0.02694
 193,-0.00129476,0.10245359,-0.25408035,-0.00225934,-0.02364929,0.51227
 397,-0.00102191,-0.00442070,-0.01069994,0.01158369,0.00129475,0.071713
 33,0.00701546,0.00591254,-0.02940095,-0.04970078,-0.01102940,0.1555620
 2,0.00064737,0.00087554,0.00014550,-0.00134529,0.00038578,-0.00029270,
 -0.42677181,-0.00558611,0.12658098,-0.01118363,-0.00218299,0.00435524,
 0.44545108,-0.00004678,0.00065556,0.00018270,-0.00079237,-0.00307263,-
 0.00160412,0.00874804,-0.06188418,-0.00101368,0.02102037,0.00491026,-0
 .00708593,0.00257602,0.05848821,0.00019875,0.00109118,0.00070467,-0.00
 278327,-0.00057428,-0.00499256,0.13891037,0.00126120,-0.03805121,-0.00
 370670,0.00313815,0.00034823,-0.13314728,-0.00263091,0.04433691,0.0112
 1661,-0.01204203,-0.00125858,-0.08450872,0.08158768,0.00817674,-0.0038
 2598,-0.00107467,0.00062306,-0.00118075,0.00921011,-0.00033988,-0.0003
 7595,0.00093932,-0.00026205,0.08828861,0.00918617,-0.01578838,-0.00198
 650,0.07883760,-0.18314622,-0.01365088,0.00031749,-0.00021801,-0.00014
 154,-0.00317670,0.00230693,0.00098106,-0.00023057,0.00003021,-0.000104
 02,-0.08677167,0.19733860,0.00002425,-0.00096829,0.00326360,0.00979554
 ,-0.01272890,-0.02928759,-0.00003281,-0.00053084,0.00315665,-0.0015458
 7,0.00032590,-0.01297283,0.00009723,0.00041978,0.00144294,-0.00741555,
 0.01510560,0.02697678,-0.01624787,-0.01258267,0.00762581,-0.04421880,0
 .00309260,0.02294845,-0.01632709,0.01770145,-0.00969161,-0.01174671,-0
 .00728364,-0.00126577,0.00048609,0.00047405,-0.00315275,-0.00428542,0.
 00059603,0.01010668,0.09903148,-0.01077557,-0.00142181,0.00657687,-0.0
 0567378,-0.01806593,0.00411351,0.00933696,-0.00295340,0.00539892,0.001
 62862,-0.01365610,0.00300134,-0.00007830,-0.00038713,0.00114441,0.0054
 9412,0.00076702,-0.00828470,0.00427023,0.03632053,-0.00196425,0.001884
 19,0.00678497,0.03395673,0.00508569,-0.08084855,0.00028980,0.00298295,
 0.00647144,-0.01038347,0.00076050,-0.05844967,0.00047512,-0.00015745,0
 .00087139,-0.00163283,-0.00044763,0.00297656,-0.01952749,-0.00821440,0
 .14569146,-0.12326825,0.13562086,0.02045517,0.01079872,-0.01203010,-0.
 00175164,0.00017518,0.00104563,-0.00015660,0.00216324,-0.00219758,0.00
 029016,0.00016166,0.00036670,0.00025563,-0.00099584,-0.00222346,0.0004
 7287,-0.00151401,0.00002387,0.00006521,0.12495925,0.14937320,-0.397828
 32,-0.01871702,0.01331787,-0.01440394,-0.00014435,0.00036577,0.0002184
 8,0.00008215,0.00041777,-0.00011812,0.00006083,-0.00005171,0.00017978,
 0.00006438,-0.00312459,-0.00187385,-0.00003135,0.00019183,0.00020082,0
 .00009665,-0.15576431,0.41026153,0.01620750,-0.00348469,-0.00422671,-0
 .00333668,-0.00270078,-0.00580846,0.00026442,-0.00022707,-0.00192651,0
 .00054983,0.00018269,0.00483892,-0.00000057,0.00000311,-0.00020243,0.0
 0031197,0.00036078,0.00361265,-0.00265695,-0.00010044,-0.00057038,-0.0
 1767347,0.01700097,0.00700717,-0.42678706,0.00558612,0.12659208,-0.011
 18371,0.00218288,0.00435547,0.00064738,-0.00087557,0.00014551,-0.00134
 534,-0.00038575,-0.00029275,-0.00006016,-0.00005836,-0.00004402,0.0011
 8777,0.00066406,-0.00091848,0.00195369,-0.00012478,-0.00069096,-0.0101
 5074,-0.00477320,0.00344006,0.44546637,-0.00874817,-0.06188168,0.00101
 385,-0.02102055,0.00491020,0.00708621,0.00004678,0.00065557,-0.0001827
 0,0.00079238,-0.00307264,0.00160416,0.00005836,0.00010987,-0.00000215,
 0.00136702,0.00046950,-0.00014546,-0.00268584,-0.00159893,-0.00081784,
 0.03454606,0.00209933,-0.01092158,-0.00257598,0.05848591,0.13892216,-0
 .00126111,-0.03805373,-0.00370694,-0.00313832,0.00034835,0.00019876,-0
 .00109121,0.00070467,-0.00278330,0.00057428,-0.00499254,-0.00004402,0.
 00000214,-0.00002840,-0.00042423,-0.00020884,-0.00202669,0.00545970,0.
 00173568,0.00051580,-0.00130429,0.00186116,-0.00291857,-0.13315871,0.0
 0263096,0.04433919,0.00017517,-0.00104564,-0.00015660,0.00216325,0.002
 19760,0.00029012,-0.12326817,-0.13562090,0.02045455,0.01079875,0.01203
 003,-0.00175158,-0.01015076,-0.03454578,-0.00130416,0.00003497,-0.0002
 5251,-0.00006502,-0.00074474,0.00028985,-0.00023646,-0.00161949,-0.000
 64968,-0.00035157,0.00016166,-0.00036670,0.00025565,0.12495918,-0.0003
 6577,0.00021848,-0.00008216,-0.00041777,-0.00011812,-0.00006083,-0.149
 37310,-0.39782869,0.01871686,-0.01331785,-0.01440390,0.00014437,0.0047
 7325,0.00209947,-0.00186109,-0.00015370,0.00014055,0.00005586,-0.00054
 335,0.00040091,0.00007493,0.00064968,0.00072283,0.00014264,0.00005172,
 0.00017978,-0.00006438,0.15576414,0.41026174,0.00026441,0.00022707,-0.
 00192652,0.00054984,-0.00018268,0.00483893,0.01620716,0.00348519,-0.00
 422632,-0.00333657,0.00270071,-0.00580847,0.00343989,0.01092105,-0.002
 91868,0.00012590,-0.00000628,-0.00069531,0.00311951,0.00026190,-0.0006
 7651,-0.00035156,-0.00014263,0.00156616,-0.00000057,-0.00000311,-0.000
 20242,-0.01767300,-0.01700090,0.00700687,-0.01632718,-0.01770148,-0.00
 969170,-0.01174816,0.00728343,-0.00126756,-0.01624786,0.01258273,0.007
 62577,-0.04422122,-0.00309220,0.02295135,0.00195362,0.00268580,0.00545
 971,-0.00534935,0.00231368,-0.01057597,-0.00103737,0.00091699,-0.00238
 966,-0.00074470,0.00054335,0.00311953,0.00048608,-0.00047404,-0.003152
 71,-0.00151400,-0.00019184,-0.00265698,0.09903565,-0.00933698,-0.00295
 340,-0.00539893,-0.00162890,-0.01365586,-0.00300163,0.01077559,-0.0014
 2181,-0.00657681,0.00567425,-0.01806540,-0.00411392,0.00012479,-0.0015
 9891,-0.00173568,0.00530830,-0.00023949,0.00672566,-0.00091702,0.00063
 350,-0.00109255,-0.00028985,0.00040091,-0.00026190,0.00007831,-0.00038
 713,-0.00114439,-0.00002387,0.00020081,0.00010044,-0.00427039,0.036319
 76,0.00028994,-0.00298284,0.00647146,-0.01038530,-0.00076080,-0.058451
 00,-0.00196442,-0.00188408,0.00678499,0.03395960,-0.00508617,-0.080850
 49,-0.00069095,0.00081786,0.00051584,0.00203833,0.00015500,0.00327918,
 -0.00238967,0.00109256,-0.02604564,-0.00023646,-0.00007494,-0.00067652
 ,0.00047512,0.00015745,0.00087141,0.00006520,-0.00009665,-0.00057039,-
 0.01952850,0.00821501,0.14569455,-0.00382598,0.00107467,0.00062306,-0.
 00118073,-0.00921011,-0.00033977,0.01121658,0.01204202,-0.00125854,-0.
 08450874,-0.08158767,0.00817676,0.00118778,-0.00136699,-0.00042422,-0.
 00020597,0.00073988,0.00005712,-0.00534926,-0.00530821,0.00203825,0.00
 003497,0.00015370,0.00012591,-0.00037595,-0.00093932,-0.00026207,-0.00
 099583,0.00312459,0.00031197,-0.00428550,-0.00549422,-0.00163289,0.088
 28862,-0.00031750,-0.00021800,0.00014154,0.00317669,0.00230693,-0.0009
 8104,-0.00918618,-0.01578836,0.00198647,-0.07883760,-0.18314621,0.0136
 5089,-0.00066405,0.00046948,0.00020882,-0.00073988,0.00021313,0.000056
 75,-0.00231367,-0.00023948,-0.00015503,0.00025251,0.00014055,0.0000062
 8,0.00023057,0.00003021,0.00010401,0.00222347,-0.00187385,-0.00036075,
 -0.00059603,0.00076701,0.00044760,0.08677167,0.19733860,-0.00003281,0.
 00053087,0.00315668,-0.00154595,-0.00032590,-0.01297284,0.00002426,0.0
 0096825,0.00326360,0.00979553,0.01272884,-0.02928761,-0.00091844,0.000
 14545,-0.00202670,0.00005712,-0.00005675,0.00027406,-0.01057592,-0.006
 72564,0.00327914,-0.00006502,-0.00005586,-0.00069531,0.00009723,-0.000
 41979,0.00144293,0.00047286,0.00003135,0.00361266,0.01010671,0.0082847
 1,0.00297661,-0.00741557,-0.01510554,0.02697678\\-0.00004971,0.0001262
 0,0.00001219,0.00000692,0.00000090,-0.00000621,0.00004432,0.00012606,-
 0.00001075,-0.00000773,0.00000101,0.00000884,0.00000605,-0.00000195,-0
 .00000575,-0.00000350,0.00000151,0.00000309,-0.00000158,0.00000085,0.0
 0000030,0.00005685,-0.00012743,-0.00002020,-0.00000014,-0.00000194,0.0
 0000405,-0.00005706,-0.00012738,0.00002023,0.00000208,0.00000067,-0.00
 000253,0.00000350,0.00000150,-0.00000323\\\@


 Not by the face shall a man be known, but by the mask.
                               -- Karen Blixen
 Job cpu time:       0 days  0 hours 10 minutes 39.5 seconds.
 Elapsed time:       0 days  0 hours  2 minutes 40.0 seconds.
 File lengths (MBytes):  RWF=     29 Int=      0 D2E=      0 Chk=      2 Scr=      1
 Normal termination of Gaussian 16 at Fri Jul  3 18:44:36 2020.
