 Entering Gaussian System, Link 0=/opt/gaussian/g16/legacy/g16/g16
 Initial command:
 /opt/gaussian/g16/legacy/g16/l1.exe "/scratch/1311852/Gau-23909.inp" -scrdir="/scratch/1311852/"
 Entering Link 1 = /opt/gaussian/g16/legacy/g16/l1.exe PID=     23919.
  
 Copyright (c) 1988,1990,1992,1993,1995,1998,2003,2009,2016,
            Gaussian, Inc.  All Rights Reserved.
  
 This is part of the Gaussian(R) 16 program.  It is based on
 the Gaussian(R) 09 system (copyright 2009, Gaussian, Inc.),
 the Gaussian(R) 03 system (copyright 2003, Gaussian, Inc.),
 the Gaussian(R) 98 system (copyright 1998, Gaussian, Inc.),
 the Gaussian(R) 94 system (copyright 1995, Gaussian, Inc.),
 the Gaussian 92(TM) system (copyright 1992, Gaussian, Inc.),
 the Gaussian 90(TM) system (copyright 1990, Gaussian, Inc.),
 the Gaussian 88(TM) system (copyright 1988, Gaussian, Inc.),
 the Gaussian 86(TM) system (copyright 1986, Carnegie Mellon
 University), and the Gaussian 82(TM) system (copyright 1983,
 Carnegie Mellon University). Gaussian is a federally registered
 trademark of Gaussian, Inc.
  
 This software contains proprietary and confidential information,
 including trade secrets, belonging to Gaussian, Inc.
  
 This software is provided under written license and may be
 used, copied, transmitted, or stored only in accord with that
 written license.
  
 The following legend is applicable only to US Government
 contracts under FAR:
  
                    RESTRICTED RIGHTS LEGEND
  
 Use, reproduction and disclosure by the US Government is
 subject to restrictions as set forth in subparagraphs (a)
 and (c) of the Commercial Computer Software - Restricted
 Rights clause in FAR 52.227-19.
  
 Gaussian, Inc.
 340 Quinnipiac St., Bldg. 40, Wallingford CT 06492
  
  
 ---------------------------------------------------------------
 Warning -- This program may not be used in any manner that
 competes with the business of Gaussian, Inc. or will provide
 assistance to any competitor of Gaussian, Inc.  The licensee
 of this program is prohibited from giving any competitor of
 Gaussian, Inc. access to this program.  By using this program,
 the user acknowledges that Gaussian, Inc. is engaged in the
 business of creating and licensing software in the field of
 computational chemistry and represents and warrants to the
 licensee that it is not a competitor of Gaussian, Inc. and that
 it will not use this program in any manner prohibited above.
 ---------------------------------------------------------------
  

 Cite this work as:
 Gaussian 16, Revision A.03,
 M. J. Frisch, G. W. Trucks, H. B. Schlegel, G. E. Scuseria, 
 M. A. Robb, J. R. Cheeseman, G. Scalmani, V. Barone, 
 G. A. Petersson, H. Nakatsuji, X. Li, M. Caricato, A. V. Marenich, 
 J. Bloino, B. G. Janesko, R. Gomperts, B. Mennucci, H. P. Hratchian, 
 J. V. Ortiz, A. F. Izmaylov, J. L. Sonnenberg, D. Williams-Young, 
 F. Ding, F. Lipparini, F. Egidi, J. Goings, B. Peng, A. Petrone, 
 T. Henderson, D. Ranasinghe, V. G. Zakrzewski, J. Gao, N. Rega, 
 G. Zheng, W. Liang, M. Hada, M. Ehara, K. Toyota, R. Fukuda, 
 J. Hasegawa, M. Ishida, T. Nakajima, Y. Honda, O. Kitao, H. Nakai, 
 T. Vreven, K. Throssell, J. A. Montgomery, Jr., J. E. Peralta, 
 F. Ogliaro, M. J. Bearpark, J. J. Heyd, E. N. Brothers, K. N. Kudin, 
 V. N. Staroverov, T. A. Keith, R. Kobayashi, J. Normand, 
 K. Raghavachari, A. P. Rendell, J. C. Burant, S. S. Iyengar, 
 J. Tomasi, M. Cossi, J. M. Millam, M. Klene, C. Adamo, R. Cammi, 
 J. W. Ochterski, R. L. Martin, K. Morokuma, O. Farkas, 
 J. B. Foresman, and D. J. Fox, Gaussian, Inc., Wallingford CT, 2016.
 
 ******************************************
 Gaussian 16:  EM64L-G16RevA.03 25-Dec-2016
                 3-Jul-2020 
 ******************************************
 %mem=16GB
 %nprocshared=4
 Will use up to    4 processors via shared memory.
 -------------------------------------------------
 # opt freq ub3lyp/6-31G(d,p) scf=(maxcycles=1024)
 -------------------------------------------------
 1/18=20,19=15,26=3,38=1/1,3;
 2/9=110,12=2,17=6,18=5,40=1/2;
 3/5=1,6=6,7=101,11=2,25=1,30=1,71=1,74=-5,116=2/1,2,3;
 4//1;
 5/5=2,7=1024,38=5/2;
 6/7=2,8=2,9=2,10=2,28=1/1;
 7//1,2,3,16;
 1/18=20,19=15,26=3/3(2);
 2/9=110/2;
 99//99;
 2/9=110/2;
 3/5=1,6=6,7=101,11=2,25=1,30=1,71=1,74=-5,116=2/1,2,3;
 4/5=5,16=3,69=1/1;
 5/5=2,7=1024,38=5/2;
 7//1,2,3,16;
 1/18=20,19=15,26=3/3(-5);
 2/9=110/2;
 6/7=2,8=2,9=2,10=2,19=2,28=1/1;
 99/9=1/99;
 ---------------
 something title
 ---------------
 Symbolic Z-matrix:
 Charge =  0 Multiplicity = 1
 N                    -1.63273  -0.56495  -0.03514 
 B                    -0.92574   0.67814  -0.0358 
 N                     1.63234  -0.56523   0.03492 
 B                     0.92589   0.678     0.0358 
 H                     2.58063  -0.63426  -0.29698 
 H                    -1.51253   1.70059   0.14785 
 H                    -0.07556   0.82858  -0.97859 
 H                    -1.23365  -1.44561  -0.31677 
 H                    -2.57701  -0.63529   0.29962 
 H                     1.23378  -1.44587   0.31696 
 H                     0.07466   0.82837   0.97762 
 H                     1.51298   1.70046  -0.14767 
 

 GradGradGradGradGradGradGradGradGradGradGradGradGradGradGradGradGradGrad
 Berny optimization.
 Initialization pass.
                           ----------------------------
                           !    Initial Parameters    !
                           ! (Angstroms and Degrees)  !
 --------------------------                            --------------------------
 ! Name  Definition              Value          Derivative Info.                !
 --------------------------------------------------------------------------------
 ! R1    R(1,2)                  1.4301         estimate D2E/DX2                !
 ! R2    R(1,8)                  1.007          estimate D2E/DX2                !
 ! R3    R(1,9)                  1.0043         estimate D2E/DX2                !
 ! R4    R(2,4)                  1.853          estimate D2E/DX2                !
 ! R5    R(2,6)                  1.1931         estimate D2E/DX2                !
 ! R6    R(2,7)                  1.2784         estimate D2E/DX2                !
 ! R7    R(3,4)                  1.4299         estimate D2E/DX2                !
 ! R8    R(3,5)                  1.0071         estimate D2E/DX2                !
 ! R9    R(3,10)                 1.0069         estimate D2E/DX2                !
 ! R10   R(4,11)                 1.2784         estimate D2E/DX2                !
 ! R11   R(4,12)                 1.1932         estimate D2E/DX2                !
 ! A1    A(2,1,8)              124.3408         estimate D2E/DX2                !
 ! A2    A(2,1,9)              121.7254         estimate D2E/DX2                !
 ! A3    A(8,1,9)              113.8637         estimate D2E/DX2                !
 ! A4    A(1,2,4)              119.5986         estimate D2E/DX2                !
 ! A5    A(1,2,6)              120.1134         estimate D2E/DX2                !
 ! A6    A(1,2,7)              115.557          estimate D2E/DX2                !
 ! A7    A(4,2,6)              119.0502         estimate D2E/DX2                !
 ! A8    A(4,2,7)               50.5031         estimate D2E/DX2                !
 ! A9    A(6,2,7)              109.8618         estimate D2E/DX2                !
 ! A10   A(4,3,5)              121.669          estimate D2E/DX2                !
 ! A11   A(4,3,10)             124.3788         estimate D2E/DX2                !
 ! A12   A(5,3,10)             113.896          estimate D2E/DX2                !
 ! A13   A(2,4,3)              119.5853         estimate D2E/DX2                !
 ! A14   A(2,4,11)              50.4378         estimate D2E/DX2                !
 ! A15   A(2,4,12)             119.0551         estimate D2E/DX2                !
 ! A16   A(3,4,11)             115.5751         estimate D2E/DX2                !
 ! A17   A(3,4,12)             120.1217         estimate D2E/DX2                !
 ! A18   A(11,4,12)            109.8837         estimate D2E/DX2                !
 ! D1    D(8,1,2,4)            -22.3786         estimate D2E/DX2                !
 ! D2    D(8,1,2,6)            170.4491         estimate D2E/DX2                !
 ! D3    D(8,1,2,7)             34.9932         estimate D2E/DX2                !
 ! D4    D(9,1,2,4)            154.3848         estimate D2E/DX2                !
 ! D5    D(9,1,2,6)            -12.7875         estimate D2E/DX2                !
 ! D6    D(9,1,2,7)           -148.2434         estimate D2E/DX2                !
 ! D7    D(1,2,4,3)              2.5876         estimate D2E/DX2                !
 ! D8    D(1,2,4,11)           -97.4834         estimate D2E/DX2                !
 ! D9    D(1,2,4,12)           169.8976         estimate D2E/DX2                !
 ! D10   D(6,2,4,3)            169.8966         estimate D2E/DX2                !
 ! D11   D(6,2,4,11)            69.8256         estimate D2E/DX2                !
 ! D12   D(6,2,4,12)           -22.7934         estimate D2E/DX2                !
 ! D13   D(7,2,4,3)            -97.4771         estimate D2E/DX2                !
 ! D14   D(7,2,4,11)           162.4518         estimate D2E/DX2                !
 ! D15   D(7,2,4,12)            69.8328         estimate D2E/DX2                !
 ! D16   D(5,3,4,2)            154.6745         estimate D2E/DX2                !
 ! D17   D(5,3,4,11)          -148.0262         estimate D2E/DX2                !
 ! D18   D(5,3,4,12)           -12.4984         estimate D2E/DX2                !
 ! D19   D(10,3,4,2)           -22.4314         estimate D2E/DX2                !
 ! D20   D(10,3,4,11)           34.868          estimate D2E/DX2                !
 ! D21   D(10,3,4,12)          170.3958         estimate D2E/DX2                !
 --------------------------------------------------------------------------------
 Trust Radius=3.00D-01 FncErr=1.00D-07 GrdErr=1.00D-06 EigMax=2.50D+02 EigMin=1.00D-04
 Number of steps in this run=     60 maximum allowed number of steps=    100.
 GradGradGradGradGradGradGradGradGradGradGradGradGradGradGradGradGradGrad

                          Input orientation:                          
 ---------------------------------------------------------------------
 Center     Atomic      Atomic             Coordinates (Angstroms)
 Number     Number       Type             X           Y           Z
 ---------------------------------------------------------------------
      1          7           0       -1.632730   -0.564950   -0.035140
      2          5           0       -0.925740    0.678140   -0.035800
      3          7           0        1.632340   -0.565230    0.034920
      4          5           0        0.925890    0.678000    0.035800
      5          1           0        2.580630   -0.634260   -0.296980
      6          1           0       -1.512530    1.700590    0.147850
      7          1           0       -0.075560    0.828580   -0.978590
      8          1           0       -1.233650   -1.445610   -0.316770
      9          1           0       -2.577010   -0.635290    0.299620
     10          1           0        1.233780   -1.445870    0.316960
     11          1           0        0.074660    0.828370    0.977620
     12          1           0        1.512980    1.700460   -0.147670
 ---------------------------------------------------------------------
                    Distance matrix (angstroms):
                    1          2          3          4          5
     1  N    0.000000
     2  B    1.430073   0.000000
     3  N    3.265822   2.845126   0.000000
     4  B    2.845434   1.853014   1.429928   0.000000
     5  H    4.222057   3.753031   1.007063   2.137974   0.000000
     6  H    2.276094   1.193086   3.877744   2.646533   4.733218
     7  H    2.292772   1.278394   2.426279   1.433375   3.108028
     8  H    1.007046   2.164270   3.018717   3.049203   3.899668
     9  H    1.004329   2.136422   4.218246   3.750285   5.192031
    10  H    3.019416   3.049489   1.006938   2.164410   1.688087
    11  H    2.425326   1.431918   2.292852   1.278369   3.169192
    12  H    3.878174   2.646698   2.276167   1.193214   2.571592
                    6          7          8          9         10
     6  H    0.000000
     7  H    2.023401   0.000000
     8  H    3.192526   2.636497   0.000000
     9  H    2.571476   3.167647   1.685577   0.000000
    10  H    4.179836   2.926763   2.547513   3.896083   0.000000
    11  H    1.992099   1.961969   2.925424   3.103762   2.636702
    12  H    3.039908   1.993505   4.179752   4.731154   3.192683
                   11         12
    11  H    0.000000
    12  H    2.023755   0.000000
 Stoichiometry    B2H8N2
 Framework group  C1[X(B2H8N2)]
 Deg. of freedom    30
 Full point group                 C1      NOp   1
 Largest Abelian subgroup         C1      NOp   1
 Largest concise Abelian subgroup C1      NOp   1
                         Standard orientation:                         
 ---------------------------------------------------------------------
 Center     Atomic      Atomic             Coordinates (Angstroms)
 Number     Number       Type             X           Y           Z
 ---------------------------------------------------------------------
      1          7           0        1.632785   -0.557723    0.033315
      2          5           0        0.925855    0.685401    0.034653
      3          7           0       -1.632364   -0.557858   -0.032932
      4          5           0       -0.925858    0.685339   -0.034785
      5          1           0       -2.580269   -0.626804    0.300084
      6          1           0        1.512477    1.707801   -0.149804
      7          1           0        0.076783    0.835992    0.978417
      8          1           0        1.233993   -1.438331    0.315516
      9          1           0        2.576670   -0.628147   -0.302539
     10          1           0       -1.234175   -1.438550   -0.315332
     11          1           0       -0.075721    0.835557   -0.977616
     12          1           0       -1.512685    1.707848    0.149249
 ---------------------------------------------------------------------
 Rotational constants (GHZ):          14.9934140           4.3184670           3.4631758
 Standard basis: 6-31G(d,p) (6D, 7F)
 There are   100 symmetry adapted cartesian basis functions of A   symmetry.
 There are   100 symmetry adapted basis functions of A   symmetry.
   100 basis functions,   168 primitive gaussians,   100 cartesian basis functions
    16 alpha electrons       16 beta electrons
       nuclear repulsion energy       112.0841643670 Hartrees.
 NAtoms=   12 NActive=   12 NUniq=   12 SFac= 1.00D+00 NAtFMM=   60 NAOKFM=F Big=F
 Integral buffers will be    131072 words long.
 Raffenetti 2 integral format.
 Two-electron integral symmetry is turned on.
 One-electron integrals computed using PRISM.
 NBasis=   100 RedAO= T EigKep=  4.33D-03  NBF=   100
 NBsUse=   100 1.00D-06 EigRej= -1.00D+00 NBFU=   100
 ExpMin= 1.27D-01 ExpMax= 4.17D+03 ExpMxC= 6.27D+02 IAcc=3 IRadAn=         5 AccDes= 0.00D+00
 Harris functional with IExCor=  402 and IRadAn=       5 diagonalized for initial guess.
 HarFok:  IExCor=  402 AccDes= 0.00D+00 IRadAn=         5 IDoV= 1 UseB2=F ITyADJ=14
 ICtDFT=  3500011 ScaDFX=  1.000000  1.000000  1.000000  1.000000
 FoFCou: FMM=F IPFlag=           0 FMFlag=      100000 FMFlg1=           0
         NFxFlg=           0 DoJE=T BraDBF=F KetDBF=T FulRan=T
         wScrn=  0.000000 ICntrl=       500 IOpCl=  0 I1Cent=   200000004 NGrid=           0
         NMat0=    1 NMatS0=      1 NMatT0=    0 NMatD0=    1 NMtDS0=    0 NMtDT0=    0
 Petite list used in FoFCou.
 Initial guess <Sx>= 0.0000 <Sy>= 0.0000 <Sz>= 0.0000 <S**2>=-0.0000 S=-0.0000
 Keep R1 and R2 ints in memory in canonical form, NReq=29209870.
 Requested convergence on RMS density matrix=1.00D-08 within1024 cycles.
 Requested convergence on MAX density matrix=1.00D-06.
 Requested convergence on             energy=1.00D-06.
 No special actions if energy rises.
 Integral accuracy reduced to 1.0D-05 until final iterations.
 Initial convergence to 1.0D-05 achieved.  Increase integral accuracy.
 SCF Done:  E(UB3LYP) =  -164.078760183     A.U. after   12 cycles
            NFock= 12  Conv=0.28D-08     -V/T= 2.0099
 <Sx>= 0.0000 <Sy>= 0.0000 <Sz>= 0.0000 <S**2>=-0.0000 S=-0.0000
 <L.S>= 0.000000000000E+00
 Annihilation of the first spin contaminant:
 S**2 before annihilation    -0.0000,   after    -0.0000

 **********************************************************************

            Population analysis using the SCF density.

 **********************************************************************

 Orbital symmetries:
 Alpha Orbitals:
       Occupied  (A) (A) (A) (A) (A) (A) (A) (A) (A) (A) (A) (A)
                 (A) (A) (A) (A)
       Virtual   (A) (A) (A) (A) (A) (A) (A) (A) (A) (A) (A) (A)
                 (A) (A) (A) (A) (A) (A) (A) (A) (A) (A) (A) (A)
                 (A) (A) (A) (A) (A) (A) (A) (A) (A) (A) (A) (A)
                 (A) (A) (A) (A) (A) (A) (A) (A) (A) (A) (A) (A)
                 (A) (A) (A) (A) (A) (A) (A) (A) (A) (A) (A) (A)
                 (A) (A) (A) (A) (A) (A) (A) (A) (A) (A) (A) (A)
                 (A) (A) (A) (A) (A) (A) (A) (A) (A) (A) (A) (A)
 Beta  Orbitals:
       Occupied  (A) (A) (A) (A) (A) (A) (A) (A) (A) (A) (A) (A)
                 (A) (A) (A) (A)
       Virtual   (A) (A) (A) (A) (A) (A) (A) (A) (A) (A) (A) (A)
                 (A) (A) (A) (A) (A) (A) (A) (A) (A) (A) (A) (A)
                 (A) (A) (A) (A) (A) (A) (A) (A) (A) (A) (A) (A)
                 (A) (A) (A) (A) (A) (A) (A) (A) (A) (A) (A) (A)
                 (A) (A) (A) (A) (A) (A) (A) (A) (A) (A) (A) (A)
                 (A) (A) (A) (A) (A) (A) (A) (A) (A) (A) (A) (A)
                 (A) (A) (A) (A) (A) (A) (A) (A) (A) (A) (A) (A)
 The electronic state is 1-A.
 Alpha  occ. eigenvalues --  -14.30569 -14.30531  -6.75047  -6.75023  -0.84661
 Alpha  occ. eigenvalues --   -0.83670  -0.61124  -0.49693  -0.49042  -0.47016
 Alpha  occ. eigenvalues --   -0.43342  -0.38950  -0.34654  -0.33335  -0.26548
 Alpha  occ. eigenvalues --   -0.22246
 Alpha virt. eigenvalues --    0.04577   0.06180   0.11262   0.11834   0.14430
 Alpha virt. eigenvalues --    0.16476   0.18148   0.21151   0.23966   0.26073
 Alpha virt. eigenvalues --    0.28899   0.36142   0.40260   0.44681   0.47860
 Alpha virt. eigenvalues --    0.52270   0.52581   0.59049   0.66885   0.69767
 Alpha virt. eigenvalues --    0.73926   0.76432   0.77950   0.78819   0.82736
 Alpha virt. eigenvalues --    0.85634   0.86210   0.87446   0.90560   0.93023
 Alpha virt. eigenvalues --    0.95206   0.96848   1.11773   1.12086   1.18859
 Alpha virt. eigenvalues --    1.22121   1.30514   1.33642   1.42039   1.46036
 Alpha virt. eigenvalues --    1.47631   1.53471   1.59128   1.62634   1.68466
 Alpha virt. eigenvalues --    1.79673   1.83472   1.86999   2.03309   2.03985
 Alpha virt. eigenvalues --    2.09037   2.09433   2.16098   2.18729   2.22275
 Alpha virt. eigenvalues --    2.26809   2.34752   2.40651   2.43034   2.47580
 Alpha virt. eigenvalues --    2.53951   2.54997   2.58119   2.61832   2.62523
 Alpha virt. eigenvalues --    2.65538   2.68367   2.71890   2.80809   2.80913
 Alpha virt. eigenvalues --    2.96278   2.97215   3.02334   3.05881   3.21384
 Alpha virt. eigenvalues --    3.21804   3.31259   3.34885   3.53894   3.60608
 Alpha virt. eigenvalues --    3.63405   3.80046   4.25444   4.26152
  Beta  occ. eigenvalues --  -14.30569 -14.30531  -6.75047  -6.75023  -0.84661
  Beta  occ. eigenvalues --   -0.83670  -0.61124  -0.49693  -0.49042  -0.47016
  Beta  occ. eigenvalues --   -0.43342  -0.38950  -0.34654  -0.33335  -0.26548
  Beta  occ. eigenvalues --   -0.22246
  Beta virt. eigenvalues --    0.04577   0.06180   0.11262   0.11834   0.14430
  Beta virt. eigenvalues --    0.16476   0.18148   0.21151   0.23966   0.26073
  Beta virt. eigenvalues --    0.28899   0.36142   0.40260   0.44681   0.47860
  Beta virt. eigenvalues --    0.52270   0.52581   0.59049   0.66885   0.69767
  Beta virt. eigenvalues --    0.73926   0.76432   0.77950   0.78819   0.82736
  Beta virt. eigenvalues --    0.85634   0.86210   0.87446   0.90560   0.93023
  Beta virt. eigenvalues --    0.95206   0.96848   1.11773   1.12086   1.18859
  Beta virt. eigenvalues --    1.22121   1.30514   1.33642   1.42039   1.46036
  Beta virt. eigenvalues --    1.47631   1.53471   1.59128   1.62634   1.68466
  Beta virt. eigenvalues --    1.79673   1.83472   1.86999   2.03309   2.03985
  Beta virt. eigenvalues --    2.09037   2.09433   2.16098   2.18729   2.22275
  Beta virt. eigenvalues --    2.26809   2.34752   2.40651   2.43034   2.47580
  Beta virt. eigenvalues --    2.53951   2.54997   2.58119   2.61832   2.62523
  Beta virt. eigenvalues --    2.65538   2.68367   2.71890   2.80809   2.80913
  Beta virt. eigenvalues --    2.96278   2.97215   3.02334   3.05881   3.21384
  Beta virt. eigenvalues --    3.21804   3.31259   3.34885   3.53894   3.60608
  Beta virt. eigenvalues --    3.63405   3.80046   4.25444   4.26152
          Condensed to atoms (all electrons):
               1          2          3          4          5          6
     1  N    6.537013   0.457713  -0.004552  -0.010025   0.000011  -0.024475
     2  B    0.457713   3.511183  -0.010017   0.138432   0.001286   0.402675
     3  N   -0.004552  -0.010017   6.537842   0.457671   0.365114   0.001324
     4  B   -0.010025   0.138432   0.457671   3.511182  -0.031827  -0.023491
     5  H    0.000011   0.001286   0.365114  -0.031827   0.446689  -0.000032
     6  H   -0.024475   0.402675   0.001324  -0.023491  -0.000032   0.726926
     7  H   -0.021206   0.264161  -0.033147   0.122294  -0.000006  -0.012838
     8  H    0.355637  -0.038027   0.003779  -0.004316  -0.000057   0.003610
     9  H    0.365720  -0.031887   0.000011   0.001289  -0.000000  -0.003192
    10  H    0.003788  -0.004306   0.355566  -0.038025  -0.030406   0.000034
    11  H   -0.033207   0.122435  -0.021211   0.263942   0.002037  -0.007624
    12  H    0.001324  -0.023409  -0.024469   0.402635  -0.003212   0.000069
               7          8          9         10         11         12
     1  N   -0.021206   0.355637   0.365720   0.003788  -0.033207   0.001324
     2  B    0.264161  -0.038027  -0.031887  -0.004306   0.122435  -0.023409
     3  N   -0.033147   0.003779   0.000011   0.355566  -0.021211  -0.024469
     4  B    0.122294  -0.004316   0.001289  -0.038025   0.263942   0.402635
     5  H   -0.000006  -0.000057  -0.000000  -0.030406   0.002037  -0.003212
     6  H   -0.012838   0.003610  -0.003192   0.000034  -0.007624   0.000069
     7  H    0.787858  -0.003525   0.002049   0.000952  -0.090057  -0.007576
     8  H   -0.003525   0.471405  -0.030476   0.001675   0.000947   0.000034
     9  H    0.002049  -0.030476   0.446393  -0.000057  -0.000020  -0.000032
    10  H    0.000952   0.001675  -0.000057   0.471195  -0.003527   0.003608
    11  H   -0.090057   0.000947  -0.000020  -0.003527   0.788028  -0.012887
    12  H   -0.007576   0.000034  -0.000032   0.003608  -0.012887   0.726890
          Atomic-Atomic Spin Densities.
               1          2          3          4          5          6
     1  N    0.000000  -0.000000  -0.000000   0.000000  -0.000000  -0.000000
     2  B   -0.000000  -0.000000  -0.000000  -0.000000   0.000000  -0.000000
     3  N   -0.000000  -0.000000  -0.000000  -0.000000   0.000000  -0.000000
     4  B    0.000000  -0.000000  -0.000000  -0.000000   0.000000   0.000000
     5  H   -0.000000   0.000000   0.000000   0.000000   0.000000   0.000000
     6  H   -0.000000  -0.000000  -0.000000   0.000000   0.000000   0.000000
     7  H    0.000000   0.000000   0.000000  -0.000000  -0.000000   0.000000
     8  H   -0.000000   0.000000  -0.000000   0.000000   0.000000   0.000000
     9  H   -0.000000   0.000000  -0.000000   0.000000   0.000000  -0.000000
    10  H   -0.000000   0.000000  -0.000000  -0.000000  -0.000000   0.000000
    11  H   -0.000000   0.000000   0.000000  -0.000000  -0.000000   0.000000
    12  H    0.000000  -0.000000   0.000000  -0.000000   0.000000  -0.000000
               7          8          9         10         11         12
     1  N    0.000000  -0.000000  -0.000000  -0.000000  -0.000000   0.000000
     2  B    0.000000   0.000000   0.000000   0.000000   0.000000  -0.000000
     3  N    0.000000  -0.000000  -0.000000  -0.000000   0.000000   0.000000
     4  B   -0.000000   0.000000   0.000000  -0.000000  -0.000000  -0.000000
     5  H   -0.000000   0.000000   0.000000  -0.000000  -0.000000   0.000000
     6  H    0.000000   0.000000  -0.000000   0.000000   0.000000  -0.000000
     7  H   -0.000000   0.000000  -0.000000  -0.000000   0.000000   0.000000
     8  H    0.000000  -0.000000  -0.000000   0.000000  -0.000000  -0.000000
     9  H   -0.000000  -0.000000  -0.000000  -0.000000   0.000000  -0.000000
    10  H   -0.000000   0.000000  -0.000000  -0.000000   0.000000   0.000000
    11  H    0.000000  -0.000000   0.000000   0.000000   0.000000  -0.000000
    12  H    0.000000  -0.000000  -0.000000   0.000000  -0.000000   0.000000
 Mulliken charges and spin densities:
               1          2
     1  N   -0.627742   0.000000
     2  B    0.209762  -0.000000
     3  N   -0.627911   0.000000
     4  B    0.210239  -0.000000
     5  H    0.250404  -0.000000
     6  H   -0.062985   0.000000
     7  H   -0.008958  -0.000000
     8  H    0.239314  -0.000000
     9  H    0.250202  -0.000000
    10  H    0.239504  -0.000000
    11  H   -0.008854   0.000000
    12  H   -0.062975   0.000000
 Sum of Mulliken charges =  -0.00000  -0.00000
 Mulliken charges and spin densities with hydrogens summed into heavy atoms:
               1          2
     1  N   -0.138226   0.000000
     2  B    0.137819  -0.000000
     3  N   -0.138003  -0.000000
     4  B    0.138410  -0.000000
 Electronic spatial extent (au):  <R**2>=            380.5748
 Charge=             -0.0000 electrons
 Dipole moment (field-independent basis, Debye):
    X=             -0.0089    Y=             -2.3625    Z=             -0.0068  Tot=              2.3625
 Quadrupole moment (field-independent basis, Debye-Ang):
   XX=            -23.4241   YY=            -25.7420   ZZ=            -28.5508
   XY=             -0.0019   XZ=             -2.0461   YZ=              0.0053
 Traceless Quadrupole moment (field-independent basis, Debye-Ang):
   XX=              2.4815   YY=              0.1637   ZZ=             -2.6452
   XY=             -0.0019   XZ=             -2.0461   YZ=              0.0053
 Octapole moment (field-independent basis, Debye-Ang**2):
  XXX=             -0.1045  YYY=            -21.1433  ZZZ=             -0.0091  XYY=              0.0040
  XXY=            -12.5595  XXZ=             -0.0331  XZZ=              0.0104  YZZ=             -2.7450
  YYZ=             -0.0058  XYZ=              0.1772
 Hexadecapole moment (field-independent basis, Debye-Ang**3):
 XXXX=           -268.5120 YYYY=           -133.5850 ZZZZ=            -40.9231 XXXY=              0.0179
 XXXZ=            -20.8347 YYYX=             -0.0148 YYYZ=              0.0083 ZZZX=             -1.6426
 ZZZY=              0.0053 XXYY=            -76.0377 XXZZ=            -67.5219 YYZZ=            -30.2233
 XXYZ=              0.0276 YYXZ=              1.4556 ZZXY=             -0.0094
 N-N= 1.120841643670D+02 E-N=-6.045157415187D+02  KE= 1.624653581700D+02
                          Isotropic Fermi Contact Couplings
        Atom                 a.u.       MegaHertz       Gauss      10(-4) cm-1
     1  N(14)              0.00000       0.00000       0.00000       0.00000
     2  B(11)             -0.00000      -0.00000      -0.00000      -0.00000
     3  N(14)              0.00000       0.00000       0.00000       0.00000
     4  B(11)             -0.00000      -0.00000      -0.00000      -0.00000
     5  H(1)               0.00000       0.00000       0.00000       0.00000
     6  H(1)               0.00000       0.00000       0.00000       0.00000
     7  H(1)               0.00000       0.00000       0.00000       0.00000
     8  H(1)               0.00000       0.00000       0.00000       0.00000
     9  H(1)              -0.00000      -0.00000      -0.00000      -0.00000
    10  H(1)              -0.00000      -0.00000      -0.00000      -0.00000
    11  H(1)              -0.00000      -0.00000      -0.00000      -0.00000
    12  H(1)               0.00000       0.00000       0.00000       0.00000
 --------------------------------------------------------
       Center         ----  Spin Dipole Couplings  ----
                      3XX-RR        3YY-RR        3ZZ-RR
 --------------------------------------------------------
     1   Atom        0.000000      0.000000      0.000000
     2   Atom        0.000000      0.000000      0.000000
     3   Atom        0.000000      0.000000      0.000000
     4   Atom        0.000000      0.000000      0.000000
     5   Atom        0.000000      0.000000      0.000000
     6   Atom        0.000000      0.000000      0.000000
     7   Atom        0.000000      0.000000      0.000000
     8   Atom        0.000000      0.000000      0.000000
     9   Atom        0.000000      0.000000      0.000000
    10   Atom        0.000000      0.000000      0.000000
    11   Atom        0.000000      0.000000      0.000000
    12   Atom        0.000000      0.000000      0.000000
 --------------------------------------------------------
                        XY            XZ            YZ
 --------------------------------------------------------
     1   Atom        0.000000      0.000000      0.000000
     2   Atom        0.000000      0.000000      0.000000
     3   Atom        0.000000      0.000000      0.000000
     4   Atom        0.000000      0.000000      0.000000
     5   Atom        0.000000      0.000000      0.000000
     6   Atom        0.000000      0.000000      0.000000
     7   Atom        0.000000      0.000000      0.000000
     8   Atom        0.000000      0.000000      0.000000
     9   Atom        0.000000      0.000000      0.000000
    10   Atom        0.000000      0.000000      0.000000
    11   Atom        0.000000      0.000000      0.000000
    12   Atom        0.000000      0.000000      0.000000
 --------------------------------------------------------


 ---------------------------------------------------------------------------------
              Anisotropic Spin Dipole Couplings in Principal Axis System
 ---------------------------------------------------------------------------------

       Atom             a.u.   MegaHertz   Gauss  10(-4) cm-1        Axes

              Baa     0.0000     0.000     0.000     0.000  1.0000  0.0000  0.0000
     1 N(14)  Bbb     0.0000     0.000     0.000     0.000 -0.0000  1.0000  0.0000
              Bcc     0.0000     0.000     0.000     0.000  0.0000  0.0000  1.0000
 
              Baa     0.0000     0.000     0.000     0.000  1.0000  0.0000  0.0000
     2 B(11)  Bbb     0.0000     0.000     0.000     0.000 -0.0000  1.0000  0.0000
              Bcc     0.0000     0.000     0.000     0.000  0.0000  0.0000  1.0000
 
              Baa     0.0000     0.000     0.000     0.000  1.0000  0.0000  0.0000
     3 N(14)  Bbb     0.0000     0.000     0.000     0.000 -0.0000  1.0000  0.0000
              Bcc     0.0000     0.000     0.000     0.000  0.0000  0.0000  1.0000
 
              Baa     0.0000     0.000     0.000     0.000  1.0000  0.0000  0.0000
     4 B(11)  Bbb     0.0000     0.000     0.000     0.000 -0.0000  1.0000  0.0000
              Bcc     0.0000     0.000     0.000     0.000  0.0000  0.0000  1.0000
 
              Baa     0.0000     0.000     0.000     0.000  1.0000  0.0000  0.0000
     5 H(1)   Bbb     0.0000     0.000     0.000     0.000 -0.0000  1.0000  0.0000
              Bcc     0.0000     0.000     0.000     0.000  0.0000  0.0000  1.0000
 
              Baa     0.0000     0.000     0.000     0.000  1.0000  0.0000  0.0000
     6 H(1)   Bbb     0.0000     0.000     0.000     0.000 -0.0000  1.0000  0.0000
              Bcc     0.0000     0.000     0.000     0.000  0.0000  0.0000  1.0000
 
              Baa     0.0000     0.000     0.000     0.000  1.0000  0.0000  0.0000
     7 H(1)   Bbb     0.0000     0.000     0.000     0.000 -0.0000  1.0000  0.0000
              Bcc     0.0000     0.000     0.000     0.000  0.0000  0.0000  1.0000
 
              Baa     0.0000     0.000     0.000     0.000  1.0000  0.0000  0.0000
     8 H(1)   Bbb     0.0000     0.000     0.000     0.000 -0.0000  1.0000  0.0000
              Bcc     0.0000     0.000     0.000     0.000  0.0000  0.0000  1.0000
 
              Baa     0.0000     0.000     0.000     0.000  1.0000  0.0000  0.0000
     9 H(1)   Bbb     0.0000     0.000     0.000     0.000 -0.0000  1.0000  0.0000
              Bcc     0.0000     0.000     0.000     0.000  0.0000  0.0000  1.0000
 
              Baa     0.0000     0.000     0.000     0.000  1.0000  0.0000  0.0000
    10 H(1)   Bbb     0.0000     0.000     0.000     0.000 -0.0000  1.0000  0.0000
              Bcc     0.0000     0.000     0.000     0.000  0.0000  0.0000  1.0000
 
              Baa     0.0000     0.000     0.000     0.000  1.0000  0.0000  0.0000
    11 H(1)   Bbb     0.0000     0.000     0.000     0.000 -0.0000  1.0000  0.0000
              Bcc     0.0000     0.000     0.000     0.000  0.0000  0.0000  1.0000
 
              Baa     0.0000     0.000     0.000     0.000  1.0000  0.0000  0.0000
    12 H(1)   Bbb     0.0000     0.000     0.000     0.000 -0.0000  1.0000  0.0000
              Bcc     0.0000     0.000     0.000     0.000  0.0000  0.0000  1.0000
 

 ---------------------------------------------------------------------------------

 Calling FoFJK, ICntrl=      2127 FMM=F ISym2X=0 I1Cent= 0 IOpClX= 1 NMat=1 NMatS=1 NMatT=0.
 ***** Axes restored to original set *****
 -------------------------------------------------------------------
 Center     Atomic                   Forces (Hartrees/Bohr)
 Number     Number              X              Y              Z
 -------------------------------------------------------------------
      1        7           0.001243579   -0.000035944   -0.000150917
      2        5           0.000279032   -0.000049372    0.000132642
      3        7           0.001136322    0.000004653   -0.000698619
      4        5          -0.000323654   -0.000019166   -0.000283111
      5        1          -0.001221297    0.000096454    0.000636925
      6        1          -0.000025405    0.000037096   -0.000033169
      7        1           0.000068054   -0.000008920    0.000072878
      8        1           0.000001098    0.000036561    0.000026521
      9        1          -0.001157288    0.000015225    0.000195468
     10        1           0.000017663   -0.000061885   -0.000012317
     11        1           0.000002438    0.000011737    0.000057345
     12        1          -0.000020543   -0.000026438    0.000056354
 -------------------------------------------------------------------
 Cartesian Forces:  Max     0.001243579 RMS     0.000439208

 GradGradGradGradGradGradGradGradGradGradGradGradGradGradGradGradGradGrad
 Berny optimization.
 FormGI is forming the generalized inverse of G from B-inverse, IUseBI=4.
 Internal  Forces:  Max     0.001366231 RMS     0.000266750
 Search for a local minimum.
 Step number   1 out of a maximum of   60
 All quantities printed in internal units (Hartrees-Bohrs-Radians)
 Mixed Optimization -- En-DIIS/RFO-DIIS
 Second derivative matrix not updated -- first step.
 ITU=  0
     Eigenvalues ---    0.00230   0.01823   0.01825   0.01829   0.01830
     Eigenvalues ---    0.01858   0.01859   0.04888   0.04894   0.08070
     Eigenvalues ---    0.08074   0.12285   0.15762   0.15762   0.16000
     Eigenvalues ---    0.16000   0.16000   0.16000   0.19726   0.19727
     Eigenvalues ---    0.20495   0.20498   0.25167   0.25177   0.40979
     Eigenvalues ---    0.41000   0.46468   0.46471   0.46489   0.46935
 RFO step:  Lambda=-1.81872574D-05 EMin= 2.30000000D-03
 Linear search not attempted -- first point.
 Iteration  1 RMS(Cart)=  0.00784262 RMS(Int)=  0.00003181
 Iteration  2 RMS(Cart)=  0.00003461 RMS(Int)=  0.00000142
 Iteration  3 RMS(Cart)=  0.00000000 RMS(Int)=  0.00000142
 Variable       Old X    -DE/DX   Delta X   Delta X   Delta X     New X
                                 (Linear)    (Quad)   (Total)
    R1        2.70245  -0.00006   0.00000  -0.00014  -0.00014   2.70231
    R2        1.90304  -0.00004   0.00000  -0.00008  -0.00008   1.90296
    R3        1.89791   0.00115   0.00000   0.00246   0.00246   1.90036
    R4        3.50169  -0.00042   0.00000  -0.00340  -0.00340   3.49829
    R5        2.25461   0.00004   0.00000   0.00016   0.00016   2.25476
    R6        2.41581  -0.00001   0.00000  -0.00005  -0.00005   2.41576
    R7        2.70217  -0.00007   0.00000  -0.00016  -0.00016   2.70201
    R8        1.90307  -0.00137   0.00000  -0.00294  -0.00294   1.90013
    R9        1.90284   0.00004   0.00000   0.00009   0.00009   1.90293
   R10        2.41577   0.00004   0.00000   0.00021   0.00021   2.41598
   R11        2.25485  -0.00004   0.00000  -0.00016  -0.00016   2.25468
    A1        2.17016   0.00002   0.00000   0.00020   0.00020   2.17036
    A2        2.12451  -0.00006   0.00000  -0.00031  -0.00031   2.12420
    A3        1.98730   0.00004   0.00000   0.00035   0.00035   1.98764
    A4        2.08739  -0.00002   0.00000  -0.00025  -0.00025   2.08714
    A5        2.09637  -0.00000   0.00000   0.00014   0.00014   2.09651
    A6        2.01685   0.00005   0.00000   0.00024   0.00024   2.01709
    A7        2.07782   0.00004   0.00000   0.00063   0.00063   2.07845
    A8        0.88145  -0.00016   0.00000  -0.00222  -0.00222   0.87923
    A9        1.91745   0.00002   0.00000  -0.00041  -0.00041   1.91705
   A10        2.12353   0.00002   0.00000   0.00016   0.00016   2.12368
   A11        2.17082   0.00004   0.00000   0.00030   0.00029   2.17111
   A12        1.98786  -0.00005   0.00000  -0.00025  -0.00026   1.98760
   A13        2.08716  -0.00004   0.00000  -0.00022  -0.00022   2.08693
   A14        0.88031  -0.00001   0.00000  -0.00039  -0.00039   0.87991
   A15        2.07790   0.00004   0.00000   0.00051   0.00051   2.07841
   A16        2.01717  -0.00000   0.00000   0.00001   0.00001   2.01717
   A17        2.09652   0.00001   0.00000   0.00000   0.00000   2.09652
   A18        1.91783  -0.00001   0.00000  -0.00061  -0.00061   1.91722
    D1       -0.39058   0.00009   0.00000   0.00238   0.00238  -0.38820
    D2        2.97490   0.00002   0.00000  -0.00038  -0.00038   2.97452
    D3        0.61075  -0.00008   0.00000  -0.00017  -0.00017   0.61058
    D4        2.69452   0.00019   0.00000   0.00809   0.00809   2.70261
    D5       -0.22318   0.00013   0.00000   0.00533   0.00533  -0.21785
    D6       -2.58734   0.00002   0.00000   0.00554   0.00554  -2.58180
    D7        0.04516   0.00002   0.00000   0.01312   0.01312   0.05829
    D8       -1.70141  -0.00000   0.00000   0.01311   0.01311  -1.68829
    D9        2.96527   0.00005   0.00000   0.01459   0.01459   2.97986
   D10        2.96526   0.00008   0.00000   0.01579   0.01579   2.98105
   D11        1.21869   0.00006   0.00000   0.01578   0.01578   1.23447
   D12       -0.39782   0.00011   0.00000   0.01725   0.01726  -0.38056
   D13       -1.70130  -0.00000   0.00000   0.01357   0.01357  -1.68773
   D14        2.83532  -0.00002   0.00000   0.01356   0.01356   2.84888
   D15        1.21881   0.00003   0.00000   0.01503   0.01503   1.23384
   D16        2.69958   0.00012   0.00000   0.00642   0.00642   2.70600
   D17       -2.58354   0.00010   0.00000   0.00592   0.00592  -2.57763
   D18       -0.21814   0.00009   0.00000   0.00488   0.00488  -0.21326
   D19       -0.39150   0.00003   0.00000   0.00115   0.00115  -0.39035
   D20        0.60856   0.00000   0.00000   0.00065   0.00065   0.60921
   D21        2.97397  -0.00000   0.00000  -0.00039  -0.00039   2.97357
         Item               Value     Threshold  Converged?
 Maximum Force            0.001366     0.000450     NO 
 RMS     Force            0.000267     0.000300     YES
 Maximum Displacement     0.025707     0.001800     NO 
 RMS     Displacement     0.007843     0.001200     NO 
 Predicted change in Energy=-9.114528D-06
 GradGradGradGradGradGradGradGradGradGradGradGradGradGradGradGradGradGrad

                          Input orientation:                          
 ---------------------------------------------------------------------
 Center     Atomic      Atomic             Coordinates (Angstroms)
 Number     Number       Type             X           Y           Z
 ---------------------------------------------------------------------
      1          7           0       -1.631588   -0.564380   -0.029702
      2          5           0       -0.924736    0.678681   -0.037193
      3          7           0        1.631562   -0.564318    0.029061
      4          5           0        0.924982    0.678711    0.037231
      5          1           0        2.580739   -0.630032   -0.296193
      6          1           0       -1.512229    1.702612    0.136207
      7          1           0       -0.070961    0.822280   -0.977763
      8          1           0       -1.231612   -1.447153   -0.303167
      9          1           0       -2.579930   -0.631167    0.298131
     10          1           0        1.232641   -1.447224    0.303585
     11          1           0        0.071777    0.822404    0.978458
     12          1           0        1.512414    1.702517   -0.136836
 ---------------------------------------------------------------------
                    Distance matrix (angstroms):
                    1          2          3          4          5
     1  N    0.000000
     2  B    1.429999   0.000000
     3  N    3.263679   2.843254   0.000000
     4  B    2.843555   1.851214   1.429841   0.000000
     5  H    4.221258   3.750755   1.005508   2.136706   0.000000
     6  H    2.276187   1.193168   3.877354   2.645405   4.730812
     7  H    2.292859   1.278367   2.415561   1.429240   3.099235
     8  H    1.007002   2.164275   3.014554   3.047305   3.898942
     9  H    1.005628   2.137244   4.220608   3.750768   5.194779
    10  H    3.015676   3.047930   1.006987   2.164532   1.686684
    11  H    2.416818   1.430119   2.292876   1.278481   3.166890
    12  H    3.877506   2.645348   2.276018   1.193127   2.570505
                    6          7          8          9         10
     6  H    0.000000
     7  H    2.023158   0.000000
     8  H    3.192619   2.636762   0.000000
     9  H    2.571523   3.167860   1.686818   0.000000
    10  H    4.181363   2.914083   2.537852   3.898933   0.000000
    11  H    1.998307   1.961421   2.914150   3.099559   2.637095
    12  H    3.036943   1.997262   4.180642   4.731021   3.192665
                   11         12
    11  H    0.000000
    12  H    2.023342   0.000000
 Stoichiometry    B2H8N2
 Framework group  C1[X(B2H8N2)]
 Deg. of freedom    30
 Full point group                 C1      NOp   1
 Largest Abelian subgroup         C1      NOp   1
 Largest concise Abelian subgroup C1      NOp   1
                         Standard orientation:                         
 ---------------------------------------------------------------------
 Center     Atomic      Atomic             Coordinates (Angstroms)
 Number     Number       Type             X           Y           Z
 ---------------------------------------------------------------------
      1          7           0        1.631732   -0.557390    0.030754
      2          5           0        0.924779    0.685617    0.037770
      3          7           0       -1.631377   -0.557578   -0.030237
      4          5           0       -0.924888    0.685506   -0.037917
      5          1           0       -2.580771   -0.623367    0.294369
      6          1           0        1.512312    1.709595   -0.135222
      7          1           0        0.070351    0.829144    0.977758
      8          1           0        1.231637   -1.440195    0.303940
      9          1           0        2.580303   -0.624101   -0.296432
     10          1           0       -1.232202   -1.440451   -0.304494
     11          1           0       -0.071051    0.829270   -0.978560
     12          1           0       -1.512517    1.709265    0.135755
 ---------------------------------------------------------------------
 Rotational constants (GHZ):          15.0117444           4.3242019           3.4665201
 Standard basis: 6-31G(d,p) (6D, 7F)
 There are   100 symmetry adapted cartesian basis functions of A   symmetry.
 There are   100 symmetry adapted basis functions of A   symmetry.
   100 basis functions,   168 primitive gaussians,   100 cartesian basis functions
    16 alpha electrons       16 beta electrons
       nuclear repulsion energy       112.1345345720 Hartrees.
 NAtoms=   12 NActive=   12 NUniq=   12 SFac= 1.00D+00 NAtFMM=   60 NAOKFM=F Big=F
 Integral buffers will be    131072 words long.
 Raffenetti 2 integral format.
 Two-electron integral symmetry is turned on.
 One-electron integrals computed using PRISM.
 NBasis=   100 RedAO= T EigKep=  4.33D-03  NBF=   100
 NBsUse=   100 1.00D-06 EigRej= -1.00D+00 NBFU=   100
 Initial guess from the checkpoint file:  "/scratch/1311852/Gau-23919.chk"
 B after Tr=     0.000000    0.000000    0.000000
         Rot=    1.000000   -0.000032    0.000206   -0.000034 Ang=  -0.02 deg.
 Initial guess <Sx>= 0.0000 <Sy>= 0.0000 <Sz>= 0.0000 <S**2>= 0.0000 S= 0.0000
 ExpMin= 1.27D-01 ExpMax= 4.17D+03 ExpMxC= 6.27D+02 IAcc=2 IRadAn=         4 AccDes= 0.00D+00
 Harris functional with IExCor=  402 and IRadAn=       4 diagonalized for initial guess.
 HarFok:  IExCor=  402 AccDes= 0.00D+00 IRadAn=         4 IDoV= 1 UseB2=F ITyADJ=14
 ICtDFT=  3500011 ScaDFX=  1.000000  1.000000  1.000000  1.000000
 FoFCou: FMM=F IPFlag=           0 FMFlag=      100000 FMFlg1=           0
         NFxFlg=           0 DoJE=T BraDBF=F KetDBF=T FulRan=T
         wScrn=  0.000000 ICntrl=       500 IOpCl=  0 I1Cent=   200000004 NGrid=           0
         NMat0=    1 NMatS0=      1 NMatT0=    0 NMatD0=    1 NMtDS0=    0 NMtDT0=    0
 Petite list used in FoFCou.
 Keep R1 and R2 ints in memory in canonical form, NReq=29209870.
 Requested convergence on RMS density matrix=1.00D-08 within1024 cycles.
 Requested convergence on MAX density matrix=1.00D-06.
 Requested convergence on             energy=1.00D-06.
 No special actions if energy rises.
 Integral accuracy reduced to 1.0D-05 until final iterations.
 Initial convergence to 1.0D-05 achieved.  Increase integral accuracy.
 SCF Done:  E(UB3LYP) =  -164.078759967     A.U. after    9 cycles
            NFock=  9  Conv=0.69D-08     -V/T= 2.0099
 <Sx>= 0.0000 <Sy>= 0.0000 <Sz>= 0.0000 <S**2>=-0.0000 S=-0.0000
 <L.S>= 0.000000000000E+00
 Annihilation of the first spin contaminant:
 S**2 before annihilation    -0.0000,   after     0.0000
 Calling FoFJK, ICntrl=      2127 FMM=F ISym2X=0 I1Cent= 0 IOpClX= 1 NMat=1 NMatS=1 NMatT=0.
 ***** Axes restored to original set *****
 -------------------------------------------------------------------
 Center     Atomic                   Forces (Hartrees/Bohr)
 Number     Number              X              Y              Z
 -------------------------------------------------------------------
      1        7          -0.000142621   -0.000169810   -0.000023521
      2        5           0.000187101   -0.000275362    0.000565570
      3        7           0.000208219   -0.000260782    0.000031326
      4        5          -0.000281247   -0.000237658   -0.000490284
      5        1           0.000106820    0.000022364    0.000223417
      6        1           0.000134474   -0.000024787    0.000138718
      7        1          -0.000015028    0.000446899   -0.000171156
      8        1          -0.000093937   -0.000012771    0.000009445
      9        1          -0.000004765    0.000056416   -0.000264913
     10        1           0.000070091    0.000007061    0.000009506
     11        1          -0.000061320    0.000454686    0.000082705
     12        1          -0.000107786   -0.000006255   -0.000110814
 -------------------------------------------------------------------
 Cartesian Forces:  Max     0.000565570 RMS     0.000212559

 GradGradGradGradGradGradGradGradGradGradGradGradGradGradGradGradGradGrad
 Berny optimization.
 Using GEDIIS/GDIIS optimizer.
 FormGI is forming the generalized inverse of G from B-inverse, IUseBI=4.
 Internal  Forces:  Max     0.000459562 RMS     0.000175145
 Search for a local minimum.
 Step number   2 out of a maximum of   60
 All quantities printed in internal units (Hartrees-Bohrs-Radians)
 Mixed Optimization -- En-DIIS/RFO-DIIS
 Swapping is turned off.
 Update second derivatives using D2CorX and points    1    2
 DE=  2.16D-07 DEPred=-9.11D-06 R=-2.38D-02
 Trust test=-2.38D-02 RLast= 4.70D-02 DXMaxT set to 1.50D-01
 ITU= -1  0
     Eigenvalues ---    0.00892   0.01021   0.01824   0.01828   0.01830
     Eigenvalues ---    0.01854   0.01951   0.04879   0.04882   0.08068
     Eigenvalues ---    0.08266   0.11425   0.15764   0.15879   0.15934
     Eigenvalues ---    0.16000   0.16000   0.16068   0.19708   0.19751
     Eigenvalues ---    0.20481   0.21775   0.25151   0.25210   0.38663
     Eigenvalues ---    0.40985   0.43271   0.46475   0.46500   0.46799
 En-DIIS/RFO-DIIS/Sim-DIIS IScMMF=       -3 using points:     2    1
 RFO step:  Lambda=-3.99206029D-05.
 DidBck=T Rises=T En-DIIS coefs:    0.49707    0.50293
 Iteration  1 RMS(Cart)=  0.00837079 RMS(Int)=  0.00004143
 Iteration  2 RMS(Cart)=  0.00007443 RMS(Int)=  0.00000743
 Iteration  3 RMS(Cart)=  0.00000000 RMS(Int)=  0.00000743
 Variable       Old X    -DE/DX   Delta X   Delta X   Delta X     New X
                                 (Linear)    (Quad)   (Total)
    R1        2.70231   0.00023   0.00007  -0.00003   0.00004   2.70235
    R2        1.90296  -0.00003   0.00004  -0.00021  -0.00017   1.90279
    R3        1.90036  -0.00009  -0.00123   0.00526   0.00403   1.90439
    R4        3.49829  -0.00008   0.00171  -0.00771  -0.00600   3.49229
    R5        2.25476  -0.00007  -0.00008   0.00021   0.00013   2.25489
    R6        2.41576   0.00017   0.00003   0.00030   0.00033   2.41609
    R7        2.70201   0.00039   0.00008   0.00011   0.00019   2.70220
    R8        1.90013   0.00003   0.00148  -0.00638  -0.00490   1.89524
    R9        1.90293  -0.00003  -0.00005   0.00017   0.00012   1.90305
   R10        2.41598   0.00015  -0.00011   0.00084   0.00073   2.41671
   R11        2.25468  -0.00004   0.00008  -0.00044  -0.00036   2.25433
    A1        2.17036   0.00012  -0.00010   0.00084   0.00071   2.17107
    A2        2.12420  -0.00006   0.00016  -0.00083  -0.00069   2.12351
    A3        1.98764  -0.00005  -0.00017   0.00063   0.00043   1.98808
    A4        2.08714   0.00040   0.00012   0.00068   0.00080   2.08794
    A5        2.09651  -0.00009  -0.00007   0.00004  -0.00003   2.09648
    A6        2.01709   0.00014  -0.00012   0.00013   0.00001   2.01710
    A7        2.07845  -0.00028  -0.00032   0.00093   0.00061   2.07906
    A8        0.87923   0.00000   0.00112  -0.00480  -0.00369   0.87554
    A9        1.91705  -0.00017   0.00020  -0.00204  -0.00183   1.91521
   A10        2.12368  -0.00001  -0.00008   0.00035   0.00025   2.12394
   A11        2.17111   0.00006  -0.00015   0.00086   0.00069   2.17180
   A12        1.98760  -0.00005   0.00013  -0.00067  -0.00056   1.98704
   A13        2.08693   0.00046   0.00011   0.00086   0.00097   2.08790
   A14        0.87991  -0.00012   0.00020  -0.00158  -0.00138   0.87853
   A15        2.07841  -0.00030  -0.00026   0.00077   0.00050   2.07892
   A16        2.01717   0.00021  -0.00000  -0.00026  -0.00027   2.01690
   A17        2.09652  -0.00013  -0.00000  -0.00030  -0.00031   2.09621
   A18        1.91722  -0.00015   0.00031  -0.00258  -0.00227   1.91495
    D1       -0.38820  -0.00003  -0.00120   0.00580   0.00460  -0.38360
    D2        2.97452  -0.00011   0.00019  -0.00290  -0.00271   2.97181
    D3        0.61058   0.00011   0.00009   0.00037   0.00046   0.61104
    D4        2.70261   0.00012  -0.00407   0.02218   0.01811   2.72072
    D5       -0.21785   0.00004  -0.00268   0.01348   0.01080  -0.20705
    D6       -2.58180   0.00026  -0.00279   0.01676   0.01397  -2.56783
    D7        0.05829  -0.00033  -0.00660  -0.01340  -0.02000   0.03829
    D8       -1.68829  -0.00023  -0.00660  -0.01172  -0.01832  -1.70661
    D9        2.97986  -0.00019  -0.00734  -0.00668  -0.01402   2.96584
   D10        2.98105  -0.00023  -0.00794  -0.00490  -0.01284   2.96820
   D11        1.23447  -0.00013  -0.00794  -0.00323  -0.01116   1.22331
   D12       -0.38056  -0.00009  -0.00868   0.00181  -0.00686  -0.38743
   D13       -1.68773  -0.00023  -0.00682  -0.01101  -0.01783  -1.70556
   D14        2.84888  -0.00013  -0.00682  -0.00933  -0.01615   2.83273
   D15        1.23384  -0.00009  -0.00756  -0.00429  -0.01185   1.22199
   D16        2.70600   0.00016  -0.00323   0.01894   0.01571   2.72171
   D17       -2.57763   0.00019  -0.00298   0.01718   0.01420  -2.56343
   D18       -0.21326   0.00004  -0.00245   0.01202   0.00956  -0.20370
   D19       -0.39035   0.00001  -0.00058   0.00348   0.00290  -0.38745
   D20        0.60921   0.00005  -0.00033   0.00171   0.00139   0.61059
   D21        2.97357  -0.00011   0.00020  -0.00345  -0.00325   2.97033
         Item               Value     Threshold  Converged?
 Maximum Force            0.000460     0.000450     NO 
 RMS     Force            0.000175     0.000300     YES
 Maximum Displacement     0.028275     0.001800     NO 
 RMS     Displacement     0.008373     0.001200     NO 
 Predicted change in Energy=-2.003200D-05
 GradGradGradGradGradGradGradGradGradGradGradGradGradGradGradGradGradGrad

                          Input orientation:                          
 ---------------------------------------------------------------------
 Center     Atomic      Atomic             Coordinates (Angstroms)
 Number     Number       Type             X           Y           Z
 ---------------------------------------------------------------------
      1          7           0       -1.630512   -0.565887   -0.030476
      2          5           0       -0.923307    0.677021   -0.030411
      3          7           0        1.631254   -0.565350    0.029224
      4          5           0        0.923735    0.677289    0.030357
      5          1           0        2.580071   -0.631146   -0.288985
      6          1           0       -1.510414    1.699982    0.150339
      7          1           0       -0.072863    0.828119   -0.973058
      8          1           0       -1.232368   -1.446811   -0.312120
      9          1           0       -2.583618   -0.632310    0.290076
     10          1           0        1.234893   -1.446579    0.312927
     11          1           0        0.075889    0.828639    0.975745
     12          1           0        1.510301    1.699963   -0.151798
 ---------------------------------------------------------------------
                    Distance matrix (angstroms):
                    1          2          3          4          5
     1  N    0.000000
     2  B    1.430021   0.000000
     3  N    3.262312   2.841271   0.000000
     4  B    2.841367   1.848041   1.429943   0.000000
     5  H    4.219016   3.748575   1.002916   2.134814   0.000000
     6  H    2.276242   1.193237   3.875110   2.642986   4.728555
     7  H    2.293029   1.278542   2.418747   1.422251   3.104105
     8  H    1.006911   2.164611   3.015596   3.045959   3.898786
     9  H    1.007758   2.138620   4.223467   3.752869   5.196056
    10  H    3.017298   3.047193   1.007052   2.165059   1.684261
    11  H    2.422599   1.426089   2.293091   1.278870   3.162506
    12  H    3.874726   2.642648   2.275751   1.192938   2.568520
                    6          7          8          9         10
     6  H    0.000000
     7  H    2.022058   0.000000
     8  H    3.192723   2.637536   0.000000
     9  H    2.571163   3.167373   1.688765   0.000000
    10  H    4.178994   2.922026   2.545203   3.904431   0.000000
    11  H    1.989193   1.954472   2.923663   3.110867   2.638036
    12  H    3.035787   1.985192   4.177334   4.732327   3.192576
                   11         12
    11  H    0.000000
    12  H    2.021904   0.000000
 Stoichiometry    B2H8N2
 Framework group  C1[X(B2H8N2)]
 Deg. of freedom    30
 Full point group                 C1      NOp   1
 Largest Abelian subgroup         C1      NOp   1
 Largest concise Abelian subgroup C1      NOp   1
                         Standard orientation:                         
 ---------------------------------------------------------------------
 Center     Atomic      Atomic             Coordinates (Angstroms)
 Number     Number       Type             X           Y           Z
 ---------------------------------------------------------------------
      1          7           0        1.630889   -0.557802    0.032056
      2          5           0        0.923407    0.684948    0.031386
      3          7           0       -1.630807   -0.557982   -0.031353
      4          5           0       -0.923564    0.684815   -0.031482
      5          1           0       -2.579970   -0.624041    0.285767
      6          1           0        1.510491    1.708069   -0.148532
      7          1           0        0.071859    0.835706    0.973090
      8          1           0        1.232621   -1.438859    0.313106
      9          1           0        2.584374   -0.623961   -0.287422
     10          1           0       -1.233927   -1.439077   -0.314746
     11          1           0       -0.074678    0.836506   -0.975881
     12          1           0       -1.510565    1.707328    0.150170
 ---------------------------------------------------------------------
 Rotational constants (GHZ):          15.0184710           4.3286006           3.4691554
 Standard basis: 6-31G(d,p) (6D, 7F)
 There are   100 symmetry adapted cartesian basis functions of A   symmetry.
 There are   100 symmetry adapted basis functions of A   symmetry.
   100 basis functions,   168 primitive gaussians,   100 cartesian basis functions
    16 alpha electrons       16 beta electrons
       nuclear repulsion energy       112.1726255187 Hartrees.
 NAtoms=   12 NActive=   12 NUniq=   12 SFac= 1.00D+00 NAtFMM=   60 NAOKFM=F Big=F
 Integral buffers will be    131072 words long.
 Raffenetti 2 integral format.
 Two-electron integral symmetry is turned on.
 One-electron integrals computed using PRISM.
 NBasis=   100 RedAO= T EigKep=  4.29D-03  NBF=   100
 NBsUse=   100 1.00D-06 EigRej= -1.00D+00 NBFU=   100
 Initial guess from the checkpoint file:  "/scratch/1311852/Gau-23919.chk"
 B after Tr=    -0.000000   -0.000000   -0.000000
         Rot=    1.000000   -0.000042   -0.000067   -0.000030 Ang=  -0.01 deg.
 Initial guess <Sx>= 0.0000 <Sy>= 0.0000 <Sz>= 0.0000 <S**2>=-0.0000 S=-0.0000
 ExpMin= 1.27D-01 ExpMax= 4.17D+03 ExpMxC= 6.27D+02 IAcc=2 IRadAn=         4 AccDes= 0.00D+00
 Harris functional with IExCor=  402 and IRadAn=       4 diagonalized for initial guess.
 HarFok:  IExCor=  402 AccDes= 0.00D+00 IRadAn=         4 IDoV= 1 UseB2=F ITyADJ=14
 ICtDFT=  3500011 ScaDFX=  1.000000  1.000000  1.000000  1.000000
 FoFCou: FMM=F IPFlag=           0 FMFlag=      100000 FMFlg1=           0
         NFxFlg=           0 DoJE=T BraDBF=F KetDBF=T FulRan=T
         wScrn=  0.000000 ICntrl=       500 IOpCl=  0 I1Cent=   200000004 NGrid=           0
         NMat0=    1 NMatS0=      1 NMatT0=    0 NMatD0=    1 NMtDS0=    0 NMtDT0=    0
 Petite list used in FoFCou.
 Keep R1 and R2 ints in memory in canonical form, NReq=29209870.
 Requested convergence on RMS density matrix=1.00D-08 within1024 cycles.
 Requested convergence on MAX density matrix=1.00D-06.
 Requested convergence on             energy=1.00D-06.
 No special actions if energy rises.
 Integral accuracy reduced to 1.0D-05 until final iterations.
 Initial convergence to 1.0D-05 achieved.  Increase integral accuracy.
 SCF Done:  E(UB3LYP) =  -164.078764633     A.U. after    9 cycles
            NFock=  9  Conv=0.55D-08     -V/T= 2.0099
 <Sx>= 0.0000 <Sy>= 0.0000 <Sz>= 0.0000 <S**2>=-0.0000 S=-0.0000
 <L.S>= 0.000000000000E+00
 Annihilation of the first spin contaminant:
 S**2 before annihilation    -0.0000,   after     0.0000
 Calling FoFJK, ICntrl=      2127 FMM=F ISym2X=0 I1Cent= 0 IOpClX= 1 NMat=1 NMatS=1 NMatT=0.
 ***** Axes restored to original set *****
 -------------------------------------------------------------------
 Center     Atomic                   Forces (Hartrees/Bohr)
 Number     Number              X              Y              Z
 -------------------------------------------------------------------
      1        7          -0.001767404   -0.000160846    0.000962780
      2        5          -0.000013206    0.000103947    0.000489545
      3        7          -0.002123906   -0.000387580    0.000416275
      4        5          -0.000109883    0.000101695   -0.000076068
      5        1           0.002353263   -0.000054374   -0.000605196
      6        1          -0.000018155   -0.000031229   -0.000186101
      7        1          -0.000147130    0.000070105   -0.001090406
      8        1          -0.000058478   -0.000077853    0.000001153
      9        1           0.001880088    0.000142637   -0.000828548
     10        1          -0.000037334    0.000129890    0.000017090
     11        1          -0.000100572    0.000053035    0.000701514
     12        1           0.000142716    0.000110574    0.000197962
 -------------------------------------------------------------------
 Cartesian Forces:  Max     0.002353263 RMS     0.000767298

 GradGradGradGradGradGradGradGradGradGradGradGradGradGradGradGradGradGrad
 Berny optimization.
 Using GEDIIS/GDIIS optimizer.
 FormGI is forming the generalized inverse of G from B-inverse, IUseBI=4.
 Internal  Forces:  Max     0.002422220 RMS     0.000514022
 Search for a local minimum.
 Step number   3 out of a maximum of   60
 All quantities printed in internal units (Hartrees-Bohrs-Radians)
 Mixed Optimization -- En-DIIS/RFO-DIIS
 Swapping is turned off.
 Update second derivatives using D2CorX and points    1    2    3
 DE= -4.67D-06 DEPred=-2.00D-05 R= 2.33D-01
 Trust test= 2.33D-01 RLast= 5.76D-02 DXMaxT set to 1.50D-01
 ITU=  0 -1  0
     Eigenvalues ---    0.00528   0.01274   0.01824   0.01826   0.01829
     Eigenvalues ---    0.01861   0.02104   0.04859   0.04875   0.08071
     Eigenvalues ---    0.09482   0.11794   0.15787   0.15885   0.15955
     Eigenvalues ---    0.16000   0.16028   0.16070   0.19681   0.19907
     Eigenvalues ---    0.20563   0.23403   0.25198   0.25245   0.40919
     Eigenvalues ---    0.41297   0.46469   0.46489   0.46739   0.73562
 En-DIIS/RFO-DIIS/Sim-DIIS IScMMF=       -3 using points:     3    2    1
 RFO step:  Lambda=-2.72379441D-05.
 DidBck=F Rises=F RFO-DIIS coefs:    0.97952    0.40020   -0.37972
 Iteration  1 RMS(Cart)=  0.00318812 RMS(Int)=  0.00000670
 Iteration  2 RMS(Cart)=  0.00000657 RMS(Int)=  0.00000334
 Iteration  3 RMS(Cart)=  0.00000000 RMS(Int)=  0.00000334
 Variable       Old X    -DE/DX   Delta X   Delta X   Delta X     New X
                                 (Linear)    (Quad)   (Total)
    R1        2.70235   0.00006  -0.00005   0.00018   0.00012   2.70247
    R2        1.90279   0.00004  -0.00003   0.00006   0.00003   1.90282
    R3        1.90439  -0.00205   0.00085  -0.00256  -0.00171   1.90267
    R4        3.49229   0.00015  -0.00117   0.00161   0.00044   3.49273
    R5        2.25489  -0.00005   0.00006  -0.00016  -0.00010   2.25479
    R6        2.41609   0.00071  -0.00003   0.00149   0.00146   2.41755
    R7        2.70220   0.00037  -0.00007   0.00052   0.00046   2.70266
    R8        1.89524   0.00242  -0.00102   0.00304   0.00202   1.89726
    R9        1.90305  -0.00009   0.00003  -0.00012  -0.00009   1.90297
   R10        2.41671   0.00059   0.00007   0.00115   0.00121   2.41793
   R11        2.25433   0.00013  -0.00006   0.00024   0.00018   2.25451
    A1        2.17107   0.00009   0.00006   0.00028   0.00033   2.17140
    A2        2.12351  -0.00002  -0.00010   0.00005  -0.00006   2.12345
    A3        1.98808  -0.00007   0.00012  -0.00030  -0.00019   1.98789
    A4        2.08794  -0.00028  -0.00011   0.00008  -0.00003   2.08792
    A5        2.09648   0.00005   0.00005  -0.00047  -0.00042   2.09606
    A6        2.01710  -0.00034   0.00009  -0.00069  -0.00060   2.01650
    A7        2.07906   0.00019   0.00023  -0.00001   0.00022   2.07927
    A8        0.87554   0.00080  -0.00077   0.00443   0.00366   0.87920
    A9        1.91521  -0.00013  -0.00012  -0.00077  -0.00089   1.91432
   A10        2.12394  -0.00003   0.00005  -0.00010  -0.00005   2.12388
   A11        2.17180  -0.00007   0.00010  -0.00020  -0.00011   2.17169
   A12        1.98704   0.00011  -0.00009   0.00034   0.00024   1.98728
   A13        2.08790  -0.00014  -0.00011   0.00027   0.00016   2.08807
   A14        0.87853   0.00034  -0.00012   0.00141   0.00128   0.87982
   A15        2.07892   0.00017   0.00018   0.00024   0.00043   2.07934
   A16        2.01690  -0.00013   0.00001  -0.00024  -0.00023   2.01667
   A17        2.09621  -0.00005   0.00001  -0.00043  -0.00043   2.09579
   A18        1.91495  -0.00005  -0.00019  -0.00070  -0.00089   1.91406
    D1       -0.38360  -0.00030   0.00081  -0.00267  -0.00186  -0.38546
    D2        2.97181  -0.00015  -0.00009  -0.00057  -0.00066   2.97115
    D3        0.61104   0.00045  -0.00007   0.00226   0.00219   0.61322
    D4        2.72072  -0.00020   0.00270  -0.00160   0.00110   2.72183
    D5       -0.20705  -0.00005   0.00180   0.00050   0.00231  -0.20475
    D6       -2.56783   0.00055   0.00182   0.00333   0.00515  -2.56268
    D7        0.03829   0.00022   0.00539   0.00083   0.00622   0.04450
    D8       -1.70661   0.00015   0.00535   0.00075   0.00610  -1.70051
    D9        2.96584   0.00018   0.00583   0.00119   0.00702   2.97286
   D10        2.96820   0.00005   0.00626  -0.00131   0.00495   2.97315
   D11        1.22331  -0.00002   0.00622  -0.00139   0.00483   1.22814
   D12       -0.38743   0.00001   0.00669  -0.00095   0.00575  -0.38168
   D13       -1.70556   0.00014   0.00552  -0.00007   0.00545  -1.70012
   D14        2.83273   0.00006   0.00548  -0.00015   0.00533   2.83806
   D15        1.22199   0.00009   0.00595   0.00030   0.00625   1.22824
   D16        2.72171  -0.00001   0.00212   0.00056   0.00268   2.72439
   D17       -2.56343   0.00031   0.00196   0.00217   0.00412  -2.55930
   D18       -0.20370   0.00000   0.00166   0.00011   0.00176  -0.20193
   D19       -0.38745  -0.00013   0.00038  -0.00094  -0.00056  -0.38801
   D20        0.61059   0.00020   0.00022   0.00067   0.00089   0.61148
   D21        2.97033  -0.00011  -0.00008  -0.00139  -0.00147   2.96885
         Item               Value     Threshold  Converged?
 Maximum Force            0.002422     0.000450     NO 
 RMS     Force            0.000514     0.000300     NO 
 Maximum Displacement     0.010160     0.001800     NO 
 RMS     Displacement     0.003189     0.001200     NO 
 Predicted change in Energy=-1.346369D-05
 GradGradGradGradGradGradGradGradGradGradGradGradGradGradGradGradGradGrad

                          Input orientation:                          
 ---------------------------------------------------------------------
 Center     Atomic      Atomic             Coordinates (Angstroms)
 Number     Number       Type             X           Y           Z
 ---------------------------------------------------------------------
      1          7           0       -1.630853   -0.565545   -0.028287
      2          5           0       -0.923398    0.677291   -0.031591
      3          7           0        1.631657   -0.565327    0.027398
      4          5           0        0.923807    0.677395    0.031276
      5          1           0        2.582596   -0.629660   -0.288144
      6          1           0       -1.510745    1.700547    0.146321
      7          1           0       -0.074846    0.826349   -0.977311
      8          1           0       -1.233285   -1.447388   -0.307919
      9          1           0       -2.583782   -0.630438    0.290252
     10          1           0        1.235182   -1.447262    0.308578
     11          1           0        0.075694    0.826380    0.977669
     12          1           0        1.511033    1.700587   -0.146422
 ---------------------------------------------------------------------
                    Distance matrix (angstroms):
                    1          2          3          4          5
     1  N    0.000000
     2  B    1.430086   0.000000
     3  N    3.262985   2.841810   0.000000
     4  B    2.841608   1.848275   1.430184   0.000000
     5  H    4.221941   3.750458   1.003987   2.135885   0.000000
     6  H    2.275981   1.193182   3.875954   2.643316   4.730123
     7  H    2.293290   1.279315   2.420404   1.427145   3.107557
     8  H    1.006927   2.164866   3.016348   3.046769   3.902565
     9  H    1.006852   2.137899   4.224127   3.752423   5.198653
    10  H    3.017459   3.047771   1.007006   2.165183   1.685251
    11  H    2.421096   1.427942   2.293662   1.279512   3.163367
    12  H    3.875663   2.643251   2.275771   1.193035   2.568732
                    6          7          8          9         10
     6  H    0.000000
     7  H    2.022024   0.000000
     8  H    3.192618   2.638171   0.000000
     9  H    2.570140   3.166024   1.687915   0.000000
    10  H    4.180328   2.922155   2.544287   3.905384   0.000000
    11  H    1.993012   1.960767   2.921674   3.109288   2.638473
    12  H    3.035925   1.992406   4.179367   4.732005   3.192502
                   11         12
    11  H    0.000000
    12  H    2.021884   0.000000
 Stoichiometry    B2H8N2
 Framework group  C1[X(B2H8N2)]
 Deg. of freedom    30
 Full point group                 C1      NOp   1
 Largest Abelian subgroup         C1      NOp   1
 Largest concise Abelian subgroup C1      NOp   1
                         Standard orientation:                         
 ---------------------------------------------------------------------
 Center     Atomic      Atomic             Coordinates (Angstroms)
 Number     Number       Type             X           Y           Z
 ---------------------------------------------------------------------
      1          7           0        1.631137   -0.557839    0.030720
      2          5           0        0.923604    0.684956    0.032913
      3          7           0       -1.631281   -0.557811   -0.030139
      4          5           0       -0.923499    0.684953   -0.032884
      5          1           0       -2.582715   -0.622202    0.283893
      6          1           0        1.511173    1.708248   -0.144059
      7          1           0        0.073544    0.833957    0.977287
      8          1           0        1.233176   -1.439707    0.309714
      9          1           0        2.584573   -0.622673   -0.286307
     10          1           0       -1.234310   -1.439720   -0.310698
     11          1           0       -0.073895    0.833995   -0.977929
     12          1           0       -1.511066    1.708109    0.143891
 ---------------------------------------------------------------------
 Rotational constants (GHZ):          15.0187338           4.3263931           3.4678846
 Standard basis: 6-31G(d,p) (6D, 7F)
 There are   100 symmetry adapted cartesian basis functions of A   symmetry.
 There are   100 symmetry adapted basis functions of A   symmetry.
   100 basis functions,   168 primitive gaussians,   100 cartesian basis functions
    16 alpha electrons       16 beta electrons
       nuclear repulsion energy       112.1477211101 Hartrees.
 NAtoms=   12 NActive=   12 NUniq=   12 SFac= 1.00D+00 NAtFMM=   60 NAOKFM=F Big=F
 Integral buffers will be    131072 words long.
 Raffenetti 2 integral format.
 Two-electron integral symmetry is turned on.
 One-electron integrals computed using PRISM.
 NBasis=   100 RedAO= T EigKep=  4.29D-03  NBF=   100
 NBsUse=   100 1.00D-06 EigRej= -1.00D+00 NBFU=   100
 Initial guess from the checkpoint file:  "/scratch/1311852/Gau-23919.chk"
 B after Tr=    -0.000000    0.000000    0.000000
         Rot=    1.000000    0.000037   -0.000005    0.000062 Ang=   0.01 deg.
 Initial guess <Sx>= 0.0000 <Sy>= 0.0000 <Sz>= 0.0000 <S**2>=-0.0000 S=-0.0000
 Keep R1 and R2 ints in memory in canonical form, NReq=29209870.
 Requested convergence on RMS density matrix=1.00D-08 within1024 cycles.
 Requested convergence on MAX density matrix=1.00D-06.
 Requested convergence on             energy=1.00D-06.
 No special actions if energy rises.
 SCF Done:  E(UB3LYP) =  -164.078780361     A.U. after    8 cycles
            NFock=  8  Conv=0.48D-08     -V/T= 2.0099
 <Sx>= 0.0000 <Sy>= 0.0000 <Sz>= 0.0000 <S**2>=-0.0000 S=-0.0000
 <L.S>= 0.000000000000E+00
 Annihilation of the first spin contaminant:
 S**2 before annihilation    -0.0000,   after    -0.0000
 Calling FoFJK, ICntrl=      2127 FMM=F ISym2X=0 I1Cent= 0 IOpClX= 1 NMat=1 NMatS=1 NMatT=0.
 ***** Axes restored to original set *****
 -------------------------------------------------------------------
 Center     Atomic                   Forces (Hartrees/Bohr)
 Number     Number              X              Y              Z
 -------------------------------------------------------------------
      1        7          -0.001118312   -0.000161053    0.000650984
      2        5           0.000033807   -0.000020537    0.000371285
      3        7          -0.001324885   -0.000150382    0.000161409
      4        5          -0.000060146   -0.000101392   -0.000207380
      5        1           0.001398359   -0.000009113   -0.000291942
      6        1           0.000015895   -0.000013456   -0.000035312
      7        1           0.000225525    0.000148633   -0.000142244
      8        1          -0.000059543   -0.000039839   -0.000027204
      9        1           0.001103796    0.000085518   -0.000553481
     10        1          -0.000002797    0.000072037    0.000032726
     11        1          -0.000231871    0.000138182    0.000032634
     12        1           0.000020170    0.000051401    0.000008525
 -------------------------------------------------------------------
 Cartesian Forces:  Max     0.001398359 RMS     0.000455139

 GradGradGradGradGradGradGradGradGradGradGradGradGradGradGradGradGradGrad
 Berny optimization.
 Using GEDIIS/GDIIS optimizer.
 FormGI is forming the generalized inverse of G from B-inverse, IUseBI=4.
 Internal  Forces:  Max     0.001417115 RMS     0.000280176
 Search for a local minimum.
 Step number   4 out of a maximum of   60
 All quantities printed in internal units (Hartrees-Bohrs-Radians)
 Mixed Optimization -- En-DIIS/RFO-DIIS
 Swapping is turned off.
 Update second derivatives using D2CorX and points    1    2    3    4
 DE= -1.57D-05 DEPred=-1.35D-05 R= 1.17D+00
 TightC=F SS=  1.41D+00  RLast= 2.01D-02 DXNew= 2.5227D-01 6.0336D-02
 Trust test= 1.17D+00 RLast= 2.01D-02 DXMaxT set to 1.50D-01
 ITU=  1  0 -1  0
     Eigenvalues ---    0.00281   0.01257   0.01824   0.01826   0.01829
     Eigenvalues ---    0.01871   0.02114   0.04825   0.04875   0.08127
     Eigenvalues ---    0.11036   0.15159   0.15811   0.15881   0.15996
     Eigenvalues ---    0.16008   0.16023   0.16443   0.19729   0.20049
     Eigenvalues ---    0.20963   0.25154   0.25206   0.28879   0.41235
     Eigenvalues ---    0.41738   0.46468   0.46490   0.46723   0.52470
 En-DIIS/RFO-DIIS/Sim-DIIS IScMMF=       -3 using points:     4    3    2    1
 RFO step:  Lambda=-3.01120653D-05.
 DidBck=F Rises=F RFO-DIIS coefs:    3.00000   -0.56268   -0.06196   -1.37536
 Iteration  1 RMS(Cart)=  0.01133335 RMS(Int)=  0.00022916
 Iteration  2 RMS(Cart)=  0.00026816 RMS(Int)=  0.00010555
 Iteration  3 RMS(Cart)=  0.00000005 RMS(Int)=  0.00010555
 Variable       Old X    -DE/DX   Delta X   Delta X   Delta X     New X
                                 (Linear)    (Quad)   (Total)
    R1        2.70247   0.00014   0.00011   0.00074   0.00085   2.70332
    R2        1.90282   0.00002  -0.00030   0.00016  -0.00014   1.90267
    R3        1.90267  -0.00122   0.00574  -0.00748  -0.00175   1.90093
    R4        3.49273  -0.00021  -0.01241  -0.00129  -0.01371   3.47902
    R5        2.25479  -0.00002   0.00019  -0.00027  -0.00008   2.25471
    R6        2.41755   0.00027   0.00333   0.00284   0.00617   2.42372
    R7        2.70266   0.00011   0.00096   0.00051   0.00147   2.70412
    R8        1.89726   0.00142  -0.00703   0.00882   0.00179   1.89905
    R9        1.90297  -0.00005   0.00013  -0.00030  -0.00017   1.90279
   R10        2.41793   0.00019   0.00377   0.00179   0.00557   2.42349
   R11        2.25451   0.00005  -0.00037   0.00061   0.00024   2.25475
    A1        2.17140   0.00007   0.00196   0.00075   0.00241   2.17381
    A2        2.12345  -0.00001  -0.00154   0.00030  -0.00154   2.12190
    A3        1.98789  -0.00006   0.00072  -0.00084  -0.00043   1.98746
    A4        2.08792   0.00007   0.00076   0.00016   0.00089   2.08880
    A5        2.09606  -0.00005  -0.00070  -0.00035  -0.00110   2.09495
    A6        2.01650   0.00011  -0.00086   0.00179   0.00091   2.01741
    A7        2.07927  -0.00002   0.00218   0.00054   0.00267   2.08194
    A8        0.87920  -0.00012  -0.00103  -0.00204  -0.00305   0.87615
    A9        1.91432  -0.00003  -0.00497  -0.00126  -0.00621   1.90811
   A10        2.12388  -0.00004   0.00047  -0.00053  -0.00035   2.12353
   A11        2.17169  -0.00002   0.00117  -0.00044   0.00044   2.17213
   A12        1.98728   0.00006  -0.00068   0.00116   0.00019   1.98748
   A13        2.08807   0.00008   0.00141  -0.00016   0.00122   2.08928
   A14        0.87982  -0.00019   0.00005  -0.00472  -0.00466   0.87516
   A15        2.07934  -0.00002   0.00228   0.00051   0.00274   2.08208
   A16        2.01667   0.00014  -0.00085   0.00267   0.00181   2.01848
   A17        2.09579  -0.00004  -0.00129   0.00003  -0.00131   2.09447
   A18        1.91406  -0.00001  -0.00588  -0.00061  -0.00648   1.90759
    D1       -0.38546   0.00002   0.00616  -0.00151   0.00465  -0.38082
    D2        2.97115  -0.00002  -0.00573  -0.00345  -0.00917   2.96198
    D3        0.61322  -0.00006   0.00480  -0.00319   0.00160   0.61482
    D4        2.72183   0.00014   0.03936   0.00641   0.04577   2.76759
    D5       -0.20475   0.00009   0.02747   0.00446   0.03195  -0.17280
    D6       -2.56268   0.00005   0.03800   0.00473   0.04272  -2.51995
    D7        0.04450  -0.00000   0.00174   0.00034   0.00206   0.04657
    D8       -1.70051  -0.00005   0.00392  -0.00140   0.00250  -1.69800
    D9        2.97286   0.00004   0.01395   0.00235   0.01631   2.98917
   D10        2.97315   0.00004   0.01315   0.00215   0.01531   2.98846
   D11        1.22814  -0.00001   0.01533   0.00042   0.01575   1.24389
   D12       -0.38168   0.00009   0.02536   0.00416   0.02956  -0.35212
   D13       -1.70012  -0.00004   0.00392  -0.00111   0.00279  -1.69732
   D14        2.83806  -0.00009   0.00610  -0.00285   0.00323   2.84130
   D15        1.22824   0.00000   0.01613   0.00090   0.01704   1.24528
   D16        2.72439   0.00016   0.03677   0.00788   0.04464   2.76902
   D17       -2.55930   0.00001   0.03680   0.00332   0.04011  -2.51920
   D18       -0.20193   0.00011   0.02398   0.00579   0.02979  -0.17215
   D19       -0.38801   0.00005   0.00463  -0.00052   0.00410  -0.38391
   D20        0.61148  -0.00011   0.00466  -0.00508  -0.00043   0.61105
   D21        2.96885  -0.00000  -0.00816  -0.00261  -0.01075   2.95810
         Item               Value     Threshold  Converged?
[...]
   D12       -0.21435   0.00001   0.00000   0.00129   0.00129  -0.21306
   D13       -1.71282  -0.00000   0.00000  -0.00010  -0.00010  -1.71291
   D14        2.79619  -0.00000   0.00000   0.00042   0.00042   2.79660
   D15        1.29100  -0.00000   0.00000   0.00077   0.00077   1.29177
   D16       -3.12505  -0.00001   0.00000  -0.00015  -0.00015  -3.12520
   D17       -2.15296   0.00001   0.00000  -0.00026  -0.00026  -2.15322
   D18        0.15360  -0.00001   0.00000  -0.00097  -0.00097   0.15262
   D19       -0.53500  -0.00000   0.00000   0.00112   0.00112  -0.53388
   D20        0.43709   0.00001   0.00000   0.00101   0.00101   0.43810
   D21        2.74365  -0.00000   0.00000   0.00030   0.00030   2.74394
         Item               Value     Threshold  Converged?
 Maximum Force            0.000053     0.000450     YES
 RMS     Force            0.000015     0.000300     YES
 Maximum Displacement     0.001636     0.001800     YES
 RMS     Displacement     0.000507     0.001200     YES
 Predicted change in Energy=-5.372687D-08
 Optimization completed.
    -- Stationary point found.
                           ----------------------------
                           !   Optimized Parameters   !
                           ! (Angstroms and Degrees)  !
 --------------------------                            --------------------------
 ! Name  Definition              Value          Derivative Info.                !
 --------------------------------------------------------------------------------
 ! R1    R(1,2)                  1.4386         -DE/DX =    0.0                 !
 ! R2    R(1,8)                  1.009          -DE/DX =    0.0                 !
 ! R3    R(1,9)                  1.0072         -DE/DX =   -0.0001              !
 ! R4    R(2,4)                  1.8149         -DE/DX =    0.0                 !
 ! R5    R(2,6)                  1.1931         -DE/DX =    0.0                 !
 ! R6    R(2,7)                  1.3044         -DE/DX =    0.0                 !
 ! R7    R(3,4)                  1.4386         -DE/DX =    0.0                 !
 ! R8    R(3,5)                  1.0071         -DE/DX =    0.0                 !
 ! R9    R(3,10)                 1.009          -DE/DX =    0.0                 !
 ! R10   R(4,11)                 1.3044         -DE/DX =    0.0                 !
 ! R11   R(4,12)                 1.1931         -DE/DX =    0.0                 !
 ! A1    A(2,1,8)              121.6724         -DE/DX =    0.0                 !
 ! A2    A(2,1,9)              118.9792         -DE/DX =    0.0                 !
 ! A3    A(8,1,9)              112.3333         -DE/DX =    0.0                 !
 ! A4    A(1,2,4)              118.2552         -DE/DX =    0.0                 !
 ! A5    A(1,2,6)              120.3802         -DE/DX =    0.0                 !
 ! A6    A(1,2,7)              116.3854         -DE/DX =    0.0                 !
 ! A7    A(4,2,6)              120.8879         -DE/DX =    0.0                 !
 ! A8    A(4,2,7)               49.0794         -DE/DX =    0.0                 !
 ! A9    A(6,2,7)              107.0884         -DE/DX =    0.0                 !
 ! A10   A(4,3,5)              118.9728         -DE/DX =    0.0                 !
 ! A11   A(4,3,10)             121.6664         -DE/DX =    0.0                 !
 ! A12   A(5,3,10)             112.3273         -DE/DX =    0.0                 !
 ! A13   A(2,4,3)              118.258          -DE/DX =    0.0                 !
 ! A14   A(2,4,11)              49.0698         -DE/DX =    0.0                 !
 ! A15   A(2,4,12)             120.8865         -DE/DX =    0.0                 !
 ! A16   A(3,4,11)             116.3969         -DE/DX =    0.0                 !
 ! A17   A(3,4,12)             120.3786         -DE/DX =    0.0                 !
 ! A18   A(11,4,12)            107.0856         -DE/DX =    0.0                 !
 ! D1    D(8,1,2,4)            -30.6634         -DE/DX =    0.0                 !
 ! D2    D(8,1,2,6)            157.1881         -DE/DX =    0.0                 !
 ! D3    D(8,1,2,7)             25.0401         -DE/DX =    0.0                 !
 ! D4    D(9,1,2,4)           -179.1023         -DE/DX =    0.0                 !
 ! D5    D(9,1,2,6)              8.7492         -DE/DX =    0.0                 !
 ! D6    D(9,1,2,7)           -123.3989         -DE/DX =    0.0                 !
 ! D7    D(1,2,4,3)              3.5058         -DE/DX =    0.0                 !
 ! D8    D(1,2,4,11)           -98.1473         -DE/DX =    0.0                 !
 ! D9    D(1,2,4,12)           175.6118         -DE/DX =    0.0                 !
 ! D10   D(6,2,4,3)            175.6128         -DE/DX =    0.0                 !
 ! D11   D(6,2,4,11)            73.9596         -DE/DX =    0.0                 !
 ! D12   D(6,2,4,12)           -12.2813         -DE/DX =    0.0                 !
 ! D13   D(7,2,4,3)            -98.1372         -DE/DX =    0.0                 !
 ! D14   D(7,2,4,11)           160.2097         -DE/DX =    0.0                 !
 ! D15   D(7,2,4,12)            73.9688         -DE/DX =    0.0                 !
 ! D16   D(5,3,4,2)           -179.0521         -DE/DX =    0.0                 !
 ! D17   D(5,3,4,11)          -123.3554         -DE/DX =    0.0                 !
 ! D18   D(5,3,4,12)             8.8004         -DE/DX =    0.0                 !
 ! D19   D(10,3,4,2)           -30.6532         -DE/DX =    0.0                 !
 ! D20   D(10,3,4,11)           25.0435         -DE/DX =    0.0                 !
 ! D21   D(10,3,4,12)          157.1993         -DE/DX =    0.0                 !
 --------------------------------------------------------------------------------
 GradGradGradGradGradGradGradGradGradGradGradGradGradGradGradGradGradGrad


 ----------------------------------------------------------------------

 Electric dipole moment (input orientation):
 (Debye = 10**-18 statcoulomb cm , SI units = C m)
                  (au)            (Debye)         (10**-30 SI)
   Tot        0.708914D+00      0.180188D+01      0.601042D+01
   x          0.120542D-03      0.306387D-03      0.102200D-02
   y         -0.708914D+00     -0.180188D+01     -0.601042D+01
   z          0.459816D-03      0.116874D-02      0.389848D-02

 Dipole polarizability, Alpha (input orientation).
 (esu units = cm**3 , SI units = C**2 m**2 J**-1)
 Alpha(0;0):
               (au)            (10**-24 esu)      (10**-40 SI)
   iso        0.416319D+02      0.616921D+01      0.686417D+01
   aniso      0.236126D+02      0.349903D+01      0.389320D+01
   xx         0.545527D+02      0.808388D+01      0.899453D+01
   yx         0.109126D-02      0.161708D-03      0.179925D-03
   yy         0.426386D+02      0.631838D+01      0.703015D+01
   zx        -0.220966D+01     -0.327438D+00     -0.364324D+00
   zy        -0.927869D-03     -0.137496D-03     -0.152985D-03
   zz         0.277043D+02      0.410535D+01      0.456782D+01

 ----------------------------------------------------------------------

 Dipole orientation:
     7         -2.99427676          0.21792424          1.12840151
     5         -1.71214202          0.08386118         -1.26508299
     7          2.99527143         -0.21877218          1.12864718
     5          1.71343936         -0.08201208         -1.26486775
     1          4.89705940         -0.28404131          1.15346061
     1         -2.85801911          0.34763051         -3.18876636
     1         -0.18821682         -1.82672681         -1.58592271
     1         -2.27740968         -0.59863417          2.69531497
     1         -4.89620865          0.28464152          1.15320087
     1          2.27789167          0.59584756          2.69636219
     1          0.18915113          1.82874617         -1.58413023
     1          2.85960262         -0.34364790         -3.18864377

 Electric dipole moment (dipole orientation):
 (Debye = 10**-18 statcoulomb cm , SI units = C m)
                  (au)            (Debye)         (10**-30 SI)
   Tot        0.708914D+00      0.180188D+01      0.601042D+01
   x          0.000000D+00      0.000000D+00      0.000000D+00
   y          0.000000D+00      0.000000D+00      0.000000D+00
   z          0.708914D+00      0.180188D+01      0.601042D+01

 Dipole polarizability, Alpha (dipole orientation).
 (esu units = cm**3 , SI units = C**2 m**2 J**-1)
 Alpha(0;0):
               (au)            (10**-24 esu)      (10**-40 SI)
   iso        0.416319D+02      0.616921D+01      0.686417D+01
   aniso      0.236126D+02      0.349903D+01      0.389320D+01
   xx         0.545535D+02      0.808399D+01      0.899466D+01
   yx        -0.220510D+01     -0.326762D+00     -0.363572D+00
   yy         0.277036D+02      0.410524D+01      0.456770D+01
   zx        -0.497081D-03     -0.736598D-04     -0.819575D-04
   zy        -0.913460D-02     -0.135361D-02     -0.150609D-02
   zz         0.426386D+02      0.631838D+01      0.703015D+01

 ----------------------------------------------------------------------
 1\1\GINC-MNODE009\Freq\UB3LYP\6-31G(d,p)\B2H8N2\MARIAHARRIS\03-Jul-202
 0\0\\#N Geom=AllCheck Guess=TCheck SCRF=Check GenChk UB3LYP/6-31G(d,p)
  Freq\\something title\\0,1\N,-1.5843818503,-0.5973186795,0.1159772505
 \B,-0.9061328057,0.6693277624,0.0440972544\N,1.5851112187,-0.597059986
 2,-0.115651349\B,0.9065918462,0.6694649619,-0.0439872344\H,2.591490406
 2,-0.6100420773,-0.1503528843\H,-1.5126542051,1.6872844342,0.183120771
 7\H,-0.0999070114,0.838590018,-0.9671893889\H,-1.2049645713,-1.4267092
 089,-0.3156534412\H,-2.5908326039,-0.6105900554,0.1514621534\H,1.20570
 45255,-1.4264437458,0.3160293987\H,0.1001163692,0.8389301555,0.9671698
 298\H,1.5129186819,1.6874964211,-0.1832023606\\Version=EM64L-G16RevA.0
 3\State=1-A\HF=-164.0792012\S2=0.\S2-1=0.\S2A=0.\RMSD=2.125e-09\RMSF=2
 .537e-05\ZeroPoint=0.0994619\Thermal=0.1057683\Dipole=0.0001205,-0.708
 9136,0.0004598\DipoleDeriv=-0.6794779,-0.1938316,-0.0547424,-0.5742763
 ,-0.7870811,0.1215216,0.1431058,0.215708,-0.6367325,1.1795924,0.361387
 4,-0.0064432,0.5249662,0.7641635,0.0106926,-0.0630037,0.0398487,0.3227
 732,-0.6797173,0.1939822,-0.0544873,0.5743931,-0.786948,-0.1214901,0.1
 434185,-0.2157119,-0.6366349,1.1800052,-0.3613019,-0.0063922,-0.524825
 9,0.7639761,-0.010794,-0.0629567,-0.0399852,0.3229274,0.1168933,0.0014
 386,0.0083137,0.0207924,0.1625506,0.0297913,-0.0689335,0.0672783,0.282
 6975,-0.202645,0.0796106,0.0119386,0.0750556,-0.2270471,-0.0173219,-0.
 0020063,-0.0328996,-0.0556035,-0.5504876,0.0282871,-0.0051444,0.030879
 2,-0.0340291,0.0098601,-0.0010176,0.0058454,-0.1664714,0.1360563,0.019
 9234,0.0458761,0.0479113,0.1215026,-0.0609674,-0.0084087,-0.1066352,0.
 2532555,0.1168528,-0.0015209,0.0084532,-0.0208774,0.1625223,-0.0297775
 ,-0.0686397,-0.0672484,0.2827321,0.1361181,-0.0199689,0.0457946,-0.047
 9575,0.1215228,0.0610082,-0.0085013,0.1067521,0.2531959,-0.5505742,-0.
 02842,-0.0051006,-0.0310175,-0.03409,-0.0098849,-0.0011368,-0.0058931,
 -0.1664959,-0.2026161,-0.0795861,0.011934,-0.0750432,-0.2270426,0.0173
 62,-0.00192,0.032941,-0.0556435\Polar=54.552745,0.0010913,42.6385578,-
 2.2096634,-0.0009279,27.7043022\Quadrupole=2.5405413,-0.3715723,-2.168
 969,0.001031,0.948711,-0.0003692\PG=C01 [X(B2H8N2)]\NImag=0\\0.7239519
 3,0.01382342,0.65350193,-0.10571826,0.17846992,0.11173256,-0.12402910,
 -0.07895459,0.00428561,0.35397760,-0.09813863,-0.25611552,-0.01311218,
 0.01075533,0.51176614,0.02153962,0.01219358,-0.03539427,-0.05656110,0.
 01294299,0.16695573,0.00015749,-0.00298973,0.00184290,-0.00289397,0.01
 881855,-0.00191357,0.72436348,0.00298733,0.00970383,-0.00328348,-0.012
 08845,-0.00966318,0.00540713,-0.01371204,0.65331446,0.00184057,0.00328
 515,-0.00095475,-0.00545711,-0.00528542,-0.00610848,-0.10528448,-0.178
 54373,0.11169732,-0.00289249,0.01208912,-0.00545662,-0.08439396,-0.017
 94365,0.02263845,-0.12406943,0.07896468,0.00423400,0.35394722,-0.01881
 695,-0.00966822,0.00528181,0.01794300,-0.02296858,-0.00442490,0.098151
 10,-0.25606168,0.01316710,-0.01077020,0.51177522,-0.00190609,-0.005415
 58,-0.00610993,0.02263726,0.00445889,0.06573532,0.02150964,-0.01215721
 ,-0.03539358,-0.05655658,-0.01302082,0.16686852,0.00030844,0.00069081,
 -0.00016687,-0.00088120,0.00045612,-0.00025954,-0.46431083,0.00308629,
 0.02704596,-0.00985858,-0.00350697,-0.00130497,0.48179185,-0.00072086,
 0.00059910,-0.00012480,-0.00021566,-0.00337862,-0.00074512,0.01055702,
 -0.05658530,0.01553279,0.02479178,0.00342901,-0.00097402,-0.00416601,0
 .05481738,-0.00070036,-0.00023024,0.00080507,-0.00054205,0.00039748,-0
 .00545933,0.00271700,0.01747960,-0.00343946,0.00587959,-0.00379908,-0.
 00019246,-0.02284320,-0.01299087,0.01085100,0.01060147,-0.01047392,-0.
 00284222,-0.09008948,0.08386964,0.01393842,-0.00390867,-0.00077303,0.0
 0099594,-0.00081857,0.00856410,-0.00120831,-0.00025838,0.00101985,0.00
 004209,0.09383965,0.00972126,-0.01506944,-0.00404283,0.08122920,-0.176
 50488,-0.01935277,0.00000739,-0.00017939,-0.00032424,-0.00277293,0.002
 56959,0.00143001,-0.00023128,0.00010940,-0.00009818,-0.08992781,0.1895
 1957,-0.00129339,-0.00041468,0.00469817,0.01489380,-0.01900040,-0.0310
 2801,0.00062602,-0.00043000,0.00267459,-0.00312205,0.00027523,-0.01309
 358,0.00019278,0.00013927,0.00168335,-0.01309655,0.02193521,0.02809358
 ,-0.01143364,-0.01479067,0.01239237,-0.04065121,0.00231401,0.01890088,
 -0.01445349,0.01995355,0.00004765,-0.01372484,-0.00833729,-0.00784377,
 0.00054853,0.00063331,-0.00542684,-0.00365140,0.00015693,0.01088733,0.
 09529512,-0.00990818,-0.00282687,0.00748958,-0.00654449,-0.01942114,0.
 00650009,0.00992183,-0.00398104,0.00388922,0.00233483,-0.01327227,0.00
 435531,0.00023563,-0.00061264,0.00161391,0.00466765,0.00112121,-0.0083
 1801,0.00343807,0.03886465,-0.00061198,0.00235025,0.00518652,0.0299564
 2,0.00739840,-0.08292029,0.00262215,0.00179786,0.00723624,-0.01480567,
 0.00290878,-0.05818028,0.00069602,-0.00065484,0.00081174,-0.00133461,-
 0.00065795,0.00262981,-0.01459160,-0.01218497,0.14765851,-0.11536608,0
 .10556360,0.06640743,0.01027535,-0.00709306,-0.00734501,0.00101988,0.0
 0255711,0.00083487,0.00311747,-0.00369230,-0.00054755,0.00015841,0.000
 55117,0.00049939,-0.00043135,-0.00165855,0.00097009,-0.00238712,-0.000
 33877,0.00020914,0.11778938,0.12201635,-0.31893795,-0.15131704,0.01162
 434,-0.01701450,-0.00943807,0.00034761,-0.00037497,0.00028569,-0.00061
 796,0.00057145,-0.00173870,-0.00003872,0.00011906,0.00010696,-0.003139
 20,-0.00246374,-0.00024731,0.00212872,0.00094731,0.00045979,-0.1284042
 6,0.33457552,0.08087082,-0.17041926,-0.08572895,0.00006389,0.00949751,
 -0.00322990,-0.00034834,0.00099594,-0.00065019,0.00282504,-0.00212591,
 0.00295828,0.00012482,0.00037821,-0.00033234,0.00126148,0.00190944,0.0
 0252930,-0.00391187,-0.00017968,0.00029294,-0.07596260,0.15974621,0.08
 825376,-0.46396501,-0.00320548,0.02737662,-0.00984918,0.00350512,-0.00
 129606,0.00030831,-0.00069070,-0.00016682,-0.00088141,-0.00045633,-0.0
 0026145,-0.00002266,-0.00007264,0.00000095,0.00144115,0.00075543,0.000
 02171,0.00124495,0.00021678,-0.00045504,-0.01015816,-0.00437901,-0.003
 04884,0.48143641,-0.01068350,-0.05664056,-0.01550981,-0.02478561,0.003
 42793,0.00098995,0.00072015,0.00059955,0.00012519,0.00021778,-0.003378
 72,0.00074799,0.00007263,0.00015414,0.00005704,0.00151185,0.00075985,0
 .00020009,-0.00192692,-0.00149503,-0.00039306,0.03278468,0.00209408,0.
 00067187,0.00429233,0.05486257,0.00307836,-0.01746201,-0.00349666,0.00
 587223,0.00379003,-0.00019461,-0.00070040,0.00022773,0.00080369,-0.000
 54657,-0.00039717,-0.00545731,0.00000062,-0.00005750,0.00002005,-0.000
 59310,-0.00075452,-0.00205218,0.00413167,0.00188144,0.00024352,0.01682
 405,0.00141963,-0.00295107,-0.02318546,0.01297462,0.01092080,0.0010217
 2,-0.00255703,0.00083487,0.00311535,0.00369192,-0.00054886,-0.11537853
 ,-0.10555778,0.06636198,0.01028113,0.00710156,-0.00734504,-0.01016035,
 -0.03279063,0.01683671,-0.00003317,-0.00028024,0.00003705,-0.00192254,
 0.00047049,-0.00012139,-0.00206099,0.00007697,-0.00180576,0.00015877,-
 0.00055106,0.00050048,0.11779762,-0.00034766,-0.00037503,-0.00028606,0
 .00061793,0.00057279,0.00173929,-0.12200542,-0.31888066,0.15130525,-0.
 01162218,-0.01702161,0.00943996,0.00437367,0.00208252,-0.00140931,-0.0
 0025255,0.00015092,-0.00045645,-0.00013225,-0.00028207,-0.00057814,-0.
 00007753,0.00061458,0.00031151,0.00003860,0.00011898,-0.00010685,0.128
 39704,0.33453567,-0.00034829,-0.00099630,-0.00065143,0.00282409,0.0021
 2711,0.00295864,0.08083676,0.17044008,-0.08575286,0.00007218,-0.009495
 69,-0.00323160,-0.00305598,-0.00069537,-0.00293936,-0.00013556,-0.0000
 1551,-0.00055969,0.00006740,0.00080027,-0.00080021,-0.00180545,-0.0003
 1153,0.00021748,0.00012483,-0.00037827,-0.00033146,-0.07592882,-0.1597
 4782,0.08826670,-0.01444625,-0.01996790,0.00004811,-0.01376154,0.00832
 829,-0.00789142,-0.01143572,0.01479521,0.01239020,-0.04064435,-0.00232
 009,0.01887916,0.00124248,0.00192477,0.00412911,-0.00627773,0.00229362
 ,-0.01030858,-0.00259359,0.00114397,-0.00434501,-0.00192353,0.00013315
 ,0.00006659,0.00054536,-0.00063256,-0.00542292,-0.00238606,-0.00212989
 ,-0.00391223,0.09533443,-0.00992458,-0.00399262,-0.00388976,-0.0023516
 8,-0.01326809,-0.00437964,0.00990200,-0.00282272,-0.00748183,0.0065476
 2,-0.01942965,-0.00651010,-0.00021608,-0.00149342,-0.00187927,0.005640
 54,-0.00009903,0.00624433,-0.00114342,0.00105847,-0.00040291,-0.000472
 28,-0.00028195,-0.00080141,-0.00023538,-0.00061195,-0.00161381,0.00033
 781,0.00094676,0.00017852,-0.00341299,0.03887212,0.00262277,-0.0017960
 2,0.00724013,-0.01484642,-0.00293252,-0.05822283,-0.00061553,-0.002346
 11,0.00518995,0.02993471,-0.00740640,-0.08286695,-0.00045420,0.0003933
 3,0.00024486,0.00278050,0.00004427,0.00397553,-0.00435202,0.00039603,-
 0.02613568,-0.00012172,0.00057834,-0.00080005,0.00069624,0.00065442,0.
 00081176,0.00020853,-0.00046040,0.00029224,-0.01452016,0.01221746,0.14
 764379,-0.00390849,0.00077236,0.00099607,-0.00081867,-0.00856364,-0.00
 120179,0.01060149,0.01047785,-0.00284277,-0.09006219,-0.08385962,0.013
 94768,0.00144230,-0.00151211,-0.00059241,-0.00041353,0.00070698,0.0001
 9180,-0.00627077,-0.00563783,0.00278157,-0.00003327,0.00025202,-0.0001
 3522,-0.00025853,-0.00101977,0.00004103,-0.00043295,0.00314026,0.00126
 107,-0.00365351,-0.00467157,-0.00133270,0.09380810,-0.00000800,-0.0001
 7865,0.00032465,0.00277068,0.00256763,-0.00143255,-0.00971845,-0.01506
 889,0.00404484,-0.08121889,-0.17654453,0.01938427,-0.00075607,0.000759
 36,0.00075197,-0.00070711,0.00008594,0.00007273,-0.00229405,-0.0001005
 7,-0.00004320,0.00028019,0.00015112,0.00001556,0.00023128,0.00010916,0
 .00009841,0.00166094,-0.00246285,-0.00190549,-0.00015557,0.00112208,0.
 00065760,0.08991506,0.18956019,0.00062624,0.00043519,0.00267355,-0.003
 12661,-0.00028190,-0.01309198,-0.00129216,0.00041218,0.00469753,0.0149
 0353,0.01903704,-0.03103642,0.00002455,-0.00020106,-0.00205312,0.00019
 191,-0.00007292,0.00044914,-0.01030119,-0.00624319,0.00397718,0.000037
 36,0.00045604,-0.00055926,0.00019332,-0.00014002,0.00168346,0.00097024
 ,0.00024902,0.00253155,0.01088714,0.00831842,0.00262725,-0.01311433,-0
 .02196880,0.02810114\\0.00004697,-0.00001815,0.00000311,0.00005552,0.0
 0002457,-0.00003102,0.00006022,-0.00002527,-0.00002232,-0.00002934,0.0
 0002664,0.00004536,-0.00004654,0.00001501,0.00000481,-0.00001322,-0.00
 000954,0.00001383,-0.00002285,-0.00000892,-0.00000006,0.00001025,-0.00
 000008,-0.00000155,-0.00005273,0.00001702,0.00000681,-0.00000589,-0.00
 000488,0.00000347,-0.00001518,-0.00000362,-0.00001013,0.00001279,-0.00
 001278,-0.00001231\\\@


 KNOWLEDGE IS OF TWO KINDS:  WE KNOW A SUBJECT OURSELVES OR WE KNOW 
 WHERE WE CAN FIND INFORMATION UPON IT.

                                    -- SAMUEL JOHNSON
 Job cpu time:       0 days  0 hours 10 minutes 45.1 seconds.
 Elapsed time:       0 days  0 hours  2 minutes 41.4 seconds.
 File lengths (MBytes):  RWF=     29 Int=      0 D2E=      0 Chk=      2 Scr=      1
 Normal termination of Gaussian 16 at Fri Jul  3 20:13:23 2020.
