 Entering Gaussian System, Link 0=/opt/gaussian/g16/legacy/g16/g16
 Initial command:
 /opt/gaussian/g16/legacy/g16/l1.exe "/scratch/1311846/Gau-11994.inp" -scrdir="/scratch/1311846/"
 Entering Link 1 = /opt/gaussian/g16/legacy/g16/l1.exe PID=     12001.
  
 Copyright (c) 1988,1990,1992,1993,1995,1998,2003,2009,2016,
            Gaussian, Inc.  All Rights Reserved.
  
 This is part of the Gaussian(R) 16 program.  It is based on
 the Gaussian(R) 09 system (copyright 2009, Gaussian, Inc.),
 the Gaussian(R) 03 system (copyright 2003, Gaussian, Inc.),
 the Gaussian(R) 98 system (copyright 1998, Gaussian, Inc.),
 the Gaussian(R) 94 system (copyright 1995, Gaussian, Inc.),
 the Gaussian 92(TM) system (copyright 1992, Gaussian, Inc.),
 the Gaussian 90(TM) system (copyright 1990, Gaussian, Inc.),
 the Gaussian 88(TM) system (copyright 1988, Gaussian, Inc.),
 the Gaussian 86(TM) system (copyright 1986, Carnegie Mellon
 University), and the Gaussian 82(TM) system (copyright 1983,
 Carnegie Mellon University). Gaussian is a federally registered
 trademark of Gaussian, Inc.
  
 This software contains proprietary and confidential information,
 including trade secrets, belonging to Gaussian, Inc.
  
 This software is provided under written license and may be
 used, copied, transmitted, or stored only in accord with that
 written license.
  
 The following legend is applicable only to US Government
 contracts under FAR:
  
                    RESTRICTED RIGHTS LEGEND
  
 Use, reproduction and disclosure by the US Government is
 subject to restrictions as set forth in subparagraphs (a)
 and (c) of the Commercial Computer Software - Restricted
 Rights clause in FAR 52.227-19.
  
 Gaussian, Inc.
 340 Quinnipiac St., Bldg. 40, Wallingford CT 06492
  
  
 ---------------------------------------------------------------
 Warning -- This program may not be used in any manner that
 competes with the business of Gaussian, Inc. or will provide
 assistance to any competitor of Gaussian, Inc.  The licensee
 of this program is prohibited from giving any competitor of
 Gaussian, Inc. access to this program.  By using this program,
 the user acknowledges that Gaussian, Inc. is engaged in the
 business of creating and licensing software in the field of
 computational chemistry and represents and warrants to the
 licensee that it is not a competitor of Gaussian, Inc. and that
 it will not use this program in any manner prohibited above.
 ---------------------------------------------------------------
  

 Cite this work as:
 Gaussian 16, Revision A.03,
 M. J. Frisch, G. W. Trucks, H. B. Schlegel, G. E. Scuseria, 
 M. A. Robb, J. R. Cheeseman, G. Scalmani, V. Barone, 
 G. A. Petersson, H. Nakatsuji, X. Li, M. Caricato, A. V. Marenich, 
 J. Bloino, B. G. Janesko, R. Gomperts, B. Mennucci, H. P. Hratchian, 
 J. V. Ortiz, A. F. Izmaylov, J. L. Sonnenberg, D. Williams-Young, 
 F. Ding, F. Lipparini, F. Egidi, J. Goings, B. Peng, A. Petrone, 
 T. Henderson, D. Ranasinghe, V. G. Zakrzewski, J. Gao, N. Rega, 
 G. Zheng, W. Liang, M. Hada, M. Ehara, K. Toyota, R. Fukuda, 
 J. Hasegawa, M. Ishida, T. Nakajima, Y. Honda, O. Kitao, H. Nakai, 
 T. Vreven, K. Throssell, J. A. Montgomery, Jr., J. E. Peralta, 
 F. Ogliaro, M. J. Bearpark, J. J. Heyd, E. N. Brothers, K. N. Kudin, 
 V. N. Staroverov, T. A. Keith, R. Kobayashi, J. Normand, 
 K. Raghavachari, A. P. Rendell, J. C. Burant, S. S. Iyengar, 
 J. Tomasi, M. Cossi, J. M. Millam, M. Klene, C. Adamo, R. Cammi, 
 J. W. Ochterski, R. L. Martin, K. Morokuma, O. Farkas, 
 J. B. Foresman, and D. J. Fox, Gaussian, Inc., Wallingford CT, 2016.
 
 ******************************************
 Gaussian 16:  EM64L-G16RevA.03 25-Dec-2016
                 3-Jul-2020 
 ******************************************
 %mem=16GB
 %nprocshared=4
 Will use up to    4 processors via shared memory.
 --------------------------------------------
 #freq ub3lyp/6-31G(d,p) scf=(maxcycles=1024)
 --------------------------------------------
 1/10=4,30=1,38=1/1,3;
 2/12=2,17=6,18=5,40=1/2;
 3/5=1,6=6,7=101,11=2,25=1,30=1,71=2,74=-5,116=2,140=1/1,2,3;
 4//1;
 5/5=2,7=1024,38=5,98=1/2;
 8/6=4,10=90,11=11/1;
 11/6=1,8=1,9=11,15=111,16=1/1,2,10;
 10/6=1/2;
 6/7=2,8=2,9=2,10=2,28=1/1;
 7/8=1,10=1,25=1/1,2,3,16;
 1/10=4,30=1/3;
 99//99;
 ---------------
 something title
 ---------------
 Symbolic Z-matrix:
 Charge =  0 Multiplicity = 1
 N                    -1.55785  -0.60413  -0.03212 
 B                    -1.14423   0.7154   -0.11508 
 N                     1.53851  -0.58932  -0.01358 
 B                     1.05366   0.7613    0.11803 
 H                     2.28098  -0.81631  -0.65587 
 H                    -1.80755   1.64313   0.22061 
 H                    -0.13478   0.92978  -0.72262 
 H                    -0.92632  -1.35097  -0.29225 
 H                    -2.43536  -0.89994   0.36493 
 H                     1.46747  -1.24686   0.74731 
 H                     0.56486   1.08185   1.1645 
 H                     1.57899   1.62998  -0.52144 
 

 GradGradGradGradGradGradGradGradGradGradGradGradGradGradGradGradGradGrad
 Berny optimization.
 Initialization pass.
 Trust Radius=3.00D-01 FncErr=1.00D-07 GrdErr=1.00D-07 EigMax=2.50D+02 EigMin=1.00D-04
 Number of steps in this run=      2 maximum allowed number of steps=      2.
 GradGradGradGradGradGradGradGradGradGradGradGradGradGradGradGradGradGrad

                          Input orientation:                          
 ---------------------------------------------------------------------
 Center     Atomic      Atomic             Coordinates (Angstroms)
 Number     Number       Type             X           Y           Z
 ---------------------------------------------------------------------
      1          7           0       -1.557850   -0.604130   -0.032120
      2          5           0       -1.144230    0.715400   -0.115080
      3          7           0        1.538510   -0.589320   -0.013580
      4          5           0        1.053660    0.761300    0.118030
      5          1           0        2.280980   -0.816310   -0.655870
      6          1           0       -1.807550    1.643130    0.220610
      7          1           0       -0.134780    0.929780   -0.722620
      8          1           0       -0.926320   -1.350970   -0.292250
      9          1           0       -2.435360   -0.899940    0.364930
     10          1           0        1.467470   -1.246860    0.747310
     11          1           0        0.564860    1.081850    1.164500
     12          1           0        1.578990    1.629980   -0.521440
 ---------------------------------------------------------------------
                    Distance matrix (angstroms):
                    1          2          3          4          5
     1  N    0.000000
     2  B    1.385324   0.000000
     3  N    3.096451   2.984910   0.000000
     4  B    2.950751   2.210694   1.441033   0.000000
     5  H    3.894958   3.790864   1.007632   2.143383   0.000000
     6  H    2.275170   1.188850   4.029243   2.995775   4.851097
     7  H    2.203361   1.197519   2.368608   1.465424   2.981473
     8  H    1.012061   2.085368   2.594832   2.924096   3.271827
     9  H    1.007559   2.122911   4.003923   3.872201   4.826271
    10  H    3.189541   3.378633   1.008146   2.144747   1.678120
    11  H    2.963161   2.166241   2.264658   1.198656   3.140354
    12  H    3.882067   2.901295   2.277027   1.199791   2.548567
                    6          7          8          9         10
     6  H    0.000000
     7  H    2.048587   0.000000
     8  H    3.162946   2.452259   0.000000
     9  H    2.623391   3.134216   1.706609   0.000000
    10  H    4.399456   3.076631   2.611849   3.936832   0.000000
    11  H    2.614248   2.018376   3.203803   3.683493   2.532122
    12  H    3.466910   1.862193   3.900663   4.827127   3.146168
                   11         12
    11  H    0.000000
    12  H    2.042376   0.000000
 Stoichiometry    B2H8N2
 Framework group  C1[X(B2H8N2)]
 Deg. of freedom    30
 Full point group                 C1      NOp   1
 Largest Abelian subgroup         C1      NOp   1
 Largest concise Abelian subgroup C1      NOp   1
                         Standard orientation:                         
 ---------------------------------------------------------------------
 Center     Atomic      Atomic             Coordinates (Angstroms)
 Number     Number       Type             X           Y           Z
 ---------------------------------------------------------------------
      1          7           0       -1.557852   -0.604131   -0.032121
      2          5           0       -1.144232    0.715399   -0.115081
      3          7           0        1.538508   -0.589320   -0.013581
      4          5           0        1.053658    0.761300    0.118029
      5          1           0        2.280978   -0.816309   -0.655871
      6          1           0       -1.807553    1.643129    0.220609
      7          1           0       -0.134782    0.929780   -0.722621
      8          1           0       -0.926321   -1.350971   -0.292251
      9          1           0       -2.435362   -0.899941    0.364929
     10          1           0        1.467469   -1.246860    0.747309
     11          1           0        0.564858    1.081850    1.164499
     12          1           0        1.578987    1.629980   -0.521441
 ---------------------------------------------------------------------
 Rotational constants (GHZ):          13.2826549           4.2863059           3.4028467
 Standard basis: 6-31G(d,p) (6D, 7F)
 There are   100 symmetry adapted cartesian basis functions of A   symmetry.
 There are   100 symmetry adapted basis functions of A   symmetry.
   100 basis functions,   168 primitive gaussians,   100 cartesian basis functions
    16 alpha electrons       16 beta electrons
       nuclear repulsion energy       110.4886660217 Hartrees.
 NAtoms=   12 NActive=   12 NUniq=   12 SFac= 1.00D+00 NAtFMM=   60 NAOKFM=F Big=F
 Integral buffers will be    131072 words long.
 Raffenetti 2 integral format.
 Two-electron integral symmetry is turned on.
 One-electron integrals computed using PRISM.
 NBasis=   100 RedAO= T EigKep=  5.96D-03  NBF=   100
 NBsUse=   100 1.00D-06 EigRej= -1.00D+00 NBFU=   100
 ExpMin= 1.27D-01 ExpMax= 4.17D+03 ExpMxC= 6.27D+02 IAcc=3 IRadAn=         5 AccDes= 0.00D+00
 Harris functional with IExCor=  402 and IRadAn=       5 diagonalized for initial guess.
 HarFok:  IExCor=  402 AccDes= 0.00D+00 IRadAn=         5 IDoV= 1 UseB2=F ITyADJ=14
 ICtDFT=  3500011 ScaDFX=  1.000000  1.000000  1.000000  1.000000
 FoFCou: FMM=F IPFlag=           0 FMFlag=      100000 FMFlg1=           0
         NFxFlg=           0 DoJE=T BraDBF=F KetDBF=T FulRan=T
         wScrn=  0.000000 ICntrl=       500 IOpCl=  0 I1Cent=   200000004 NGrid=           0
         NMat0=    1 NMatS0=      1 NMatT0=    0 NMatD0=    1 NMtDS0=    0 NMtDT0=    0
 Petite list used in FoFCou.
 Initial guess <Sx>= 0.0000 <Sy>= 0.0000 <Sz>= 0.0000 <S**2>= 0.0000 S= 0.0000
 Keep R1 and R2 ints in memory in canonical form, NReq=29209846.
 Requested convergence on RMS density matrix=1.00D-08 within1024 cycles.
 Requested convergence on MAX density matrix=1.00D-06.
 Requested convergence on             energy=1.00D-06.
 No special actions if energy rises.
 Integral accuracy reduced to 1.0D-05 until final iterations.
 Initial convergence to 1.0D-05 achieved.  Increase integral accuracy.
 SCF Done:  E(UB3LYP) =  -164.075772143     A.U. after   12 cycles
            NFock= 12  Conv=0.73D-08     -V/T= 2.0095
 <Sx>= 0.0000 <Sy>= 0.0000 <Sz>= 0.0000 <S**2>= 0.0000 S= 0.0000
 <L.S>= 0.000000000000E+00
 Annihilation of the first spin contaminant:
 S**2 before annihilation     0.0000,   after     0.0000
 DoSCS=F DFT=T ScalE2(SS,OS)=  1.000000  1.000000
 Range of M.O.s used for correlation:     1   100
 NBasis=   100 NAE=    16 NBE=    16 NFC=     0 NFV=     0
 NROrb=    100 NOA=    16 NOB=    16 NVA=    84 NVB=    84
 Symmetrizing basis deriv contribution to polar:
 IMax=3 JMax=2 DiffMx= 0.00D+00
 G2DrvN: will do    13 centers at a time, making    1 passes.
 Calling FoFCou, ICntrl=  3107 FMM=F I1Cent=   0 AccDes= 0.00D+00.
 End of G2Drv F.D. properties file   721 does not exist.
 End of G2Drv F.D. properties file   722 does not exist.
 End of G2Drv F.D. properties file   788 does not exist.
          IDoAtm=111111111111
          Differentiating once with respect to electric field.
                with respect to dipole field.
          Differentiating once with respect to nuclear coordinates.
 Keep R1 and R2 ints in memory in canonical form, NReq=29207798.
          There are    39 degrees of freedom in the 1st order CPHF.  IDoFFX=6 NUNeed=     3.
     36 vectors produced by pass  0 Test12= 6.89D-15 2.56D-09 XBig12= 7.52D+01 2.88D+00.
 AX will form    36 AO Fock derivatives at one time.
     36 vectors produced by pass  1 Test12= 6.89D-15 2.56D-09 XBig12= 3.17D+00 2.37D-01.
     36 vectors produced by pass  2 Test12= 6.89D-15 2.56D-09 XBig12= 2.94D-02 1.92D-02.
     36 vectors produced by pass  3 Test12= 6.89D-15 2.56D-09 XBig12= 3.59D-05 5.91D-04.
     36 vectors produced by pass  4 Test12= 6.89D-15 2.56D-09 XBig12= 2.31D-08 1.92D-05.
     13 vectors produced by pass  5 Test12= 6.89D-15 2.56D-09 XBig12= 1.12D-11 3.48D-07.
      3 vectors produced by pass  6 Test12= 6.89D-15 2.56D-09 XBig12= 4.02D-15 5.23D-09.
 InvSVY:  IOpt=1 It=  1 EMax= 5.33D-15
 Solved reduced A of dimension   196 with    39 vectors.
 Isotropic polarizability for W=    0.000000       42.96 Bohr**3.
 End of Minotr F.D. properties file   721 does not exist.
 End of Minotr F.D. properties file   722 does not exist.
 End of Minotr F.D. properties file   788 does not exist.

 **********************************************************************

            Population analysis using the SCF density.

 **********************************************************************

 Orbital symmetries:
 Alpha Orbitals:
       Occupied  (A) (A) (A) (A) (A) (A) (A) (A) (A) (A) (A) (A)
                 (A) (A) (A) (A)
       Virtual   (A) (A) (A) (A) (A) (A) (A) (A) (A) (A) (A) (A)
                 (A) (A) (A) (A) (A) (A) (A) (A) (A) (A) (A) (A)
                 (A) (A) (A) (A) (A) (A) (A) (A) (A) (A) (A) (A)
                 (A) (A) (A) (A) (A) (A) (A) (A) (A) (A) (A) (A)
                 (A) (A) (A) (A) (A) (A) (A) (A) (A) (A) (A) (A)
                 (A) (A) (A) (A) (A) (A) (A) (A) (A) (A) (A) (A)
                 (A) (A) (A) (A) (A) (A) (A) (A) (A) (A) (A) (A)
 Beta  Orbitals:
       Occupied  (A) (A) (A) (A) (A) (A) (A) (A) (A) (A) (A) (A)
                 (A) (A) (A) (A)
       Virtual   (A) (A) (A) (A) (A) (A) (A) (A) (A) (A) (A) (A)
                 (A) (A) (A) (A) (A) (A) (A) (A) (A) (A) (A) (A)
                 (A) (A) (A) (A) (A) (A) (A) (A) (A) (A) (A) (A)
                 (A) (A) (A) (A) (A) (A) (A) (A) (A) (A) (A) (A)
                 (A) (A) (A) (A) (A) (A) (A) (A) (A) (A) (A) (A)
                 (A) (A) (A) (A) (A) (A) (A) (A) (A) (A) (A) (A)
                 (A) (A) (A) (A) (A) (A) (A) (A) (A) (A) (A) (A)
 The electronic state is 1-A.
 Alpha  occ. eigenvalues --  -14.33641 -14.29877  -6.75396  -6.72340  -0.87023
 Alpha  occ. eigenvalues --   -0.83208  -0.57210  -0.51300  -0.49134  -0.47818
 Alpha  occ. eigenvalues --   -0.42184  -0.36206  -0.34652  -0.31884  -0.28733
 Alpha  occ. eigenvalues --   -0.23559
 Alpha virt. eigenvalues --    0.00816   0.07249   0.10183   0.12003   0.14052
 Alpha virt. eigenvalues --    0.15867   0.19484   0.20228   0.22515   0.24281
 Alpha virt. eigenvalues --    0.28171   0.32120   0.42834   0.43327   0.46340
 Alpha virt. eigenvalues --    0.50096   0.55403   0.56440   0.58846   0.69269
 Alpha virt. eigenvalues --    0.73970   0.74451   0.78655   0.82664   0.83588
 Alpha virt. eigenvalues --    0.84706   0.88958   0.91493   0.92659   0.93017
 Alpha virt. eigenvalues --    0.93999   0.96586   1.11067   1.16405   1.18388
 Alpha virt. eigenvalues --    1.20913   1.22360   1.29007   1.37127   1.45706
 Alpha virt. eigenvalues --    1.48191   1.54373   1.61176   1.65420   1.70760
 Alpha virt. eigenvalues --    1.73333   1.77861   1.81772   1.96321   2.04248
 Alpha virt. eigenvalues --    2.08662   2.13323   2.17924   2.19737   2.26134
 Alpha virt. eigenvalues --    2.27873   2.32692   2.35717   2.39232   2.41485
 Alpha virt. eigenvalues --    2.45908   2.54528   2.55987   2.60523   2.61728
 Alpha virt. eigenvalues --    2.66954   2.67900   2.70746   2.76912   2.79843
 Alpha virt. eigenvalues --    2.93897   2.99596   3.09722   3.13491   3.21782
 Alpha virt. eigenvalues --    3.26197   3.30411   3.34391   3.56339   3.61479
 Alpha virt. eigenvalues --    3.66791   3.73878   4.17629   4.19479
  Beta  occ. eigenvalues --  -14.33641 -14.29877  -6.75396  -6.72340  -0.87023
  Beta  occ. eigenvalues --   -0.83208  -0.57210  -0.51300  -0.49134  -0.47818
  Beta  occ. eigenvalues --   -0.42184  -0.36206  -0.34652  -0.31884  -0.28733
  Beta  occ. eigenvalues --   -0.23559
  Beta virt. eigenvalues --    0.00816   0.07249   0.10183   0.12003   0.14052
  Beta virt. eigenvalues --    0.15867   0.19484   0.20228   0.22515   0.24281
  Beta virt. eigenvalues --    0.28171   0.32120   0.42834   0.43327   0.46340
  Beta virt. eigenvalues --    0.50096   0.55403   0.56440   0.58846   0.69269
  Beta virt. eigenvalues --    0.73970   0.74451   0.78655   0.82664   0.83588
  Beta virt. eigenvalues --    0.84706   0.88958   0.91493   0.92659   0.93017
  Beta virt. eigenvalues --    0.93999   0.96586   1.11067   1.16405   1.18388
  Beta virt. eigenvalues --    1.20913   1.22360   1.29007   1.37127   1.45706
  Beta virt. eigenvalues --    1.48191   1.54373   1.61176   1.65420   1.70760
  Beta virt. eigenvalues --    1.73333   1.77861   1.81772   1.96321   2.04248
  Beta virt. eigenvalues --    2.08662   2.13323   2.17924   2.19737   2.26134
  Beta virt. eigenvalues --    2.27873   2.32692   2.35717   2.39232   2.41485
  Beta virt. eigenvalues --    2.45908   2.54528   2.55987   2.60523   2.61728
  Beta virt. eigenvalues --    2.66954   2.67900   2.70746   2.76912   2.79843
  Beta virt. eigenvalues --    2.93897   2.99596   3.09722   3.13491   3.21782
  Beta virt. eigenvalues --    3.26197   3.30411   3.34391   3.56339   3.61479
  Beta virt. eigenvalues --    3.66791   3.73878   4.17629   4.19479
          Condensed to atoms (all electrons):
               1          2          3          4          5          6
     1  N    6.411570   0.510348  -0.012000  -0.010538   0.000083  -0.023666
     2  B    0.510348   3.557666  -0.012104   0.053773   0.001234   0.402822
     3  N   -0.012000  -0.012104   6.523740   0.459815   0.360644   0.000754
     4  B   -0.010538   0.053773   0.459815   3.536908  -0.035359  -0.004807
     5  H    0.000083   0.001234   0.360644  -0.035359   0.463542  -0.000013
     6  H   -0.023666   0.402822   0.000754  -0.004807  -0.000013   0.704337
     7  H   -0.016746   0.337755  -0.032622   0.074484  -0.000426  -0.025926
     8  H    0.339472  -0.036228   0.022723  -0.000749  -0.000219   0.003941
     9  H    0.357752  -0.033874   0.000037   0.000868  -0.000002  -0.002718
    10  H    0.001653  -0.002233   0.356374  -0.036060  -0.032136  -0.000019
    11  H   -0.008337   0.021728  -0.024766   0.400315   0.003157  -0.000069
    12  H    0.000800  -0.025711  -0.023917   0.398755  -0.003907   0.000705
               7          8          9         10         11         12
     1  N   -0.016746   0.339472   0.357752   0.001653  -0.008337   0.000800
     2  B    0.337755  -0.036228  -0.033874  -0.002233   0.021728  -0.025711
     3  N   -0.032622   0.022723   0.000037   0.356374  -0.024766  -0.023917
     4  B    0.074484  -0.000749   0.000868  -0.036060   0.400315   0.398755
     5  H   -0.000426  -0.000219  -0.000002  -0.032136   0.003157  -0.003907
     6  H   -0.025926   0.003941  -0.002718  -0.000019  -0.000069   0.000705
     7  H    0.737800  -0.009551   0.002938   0.001730  -0.054187  -0.005486
     8  H   -0.009551   0.442698  -0.028049   0.000313   0.000914   0.000256
     9  H    0.002938  -0.028049   0.441027  -0.000012  -0.000178  -0.000025
    10  H    0.001730   0.000313  -0.000012   0.472892  -0.004904   0.003713
    11  H   -0.054187   0.000914  -0.000178  -0.004904   0.757418  -0.019104
    12  H   -0.005486   0.000256  -0.000025   0.003713  -0.019104   0.763974
          Atomic-Atomic Spin Densities.
               1          2          3          4          5          6
     1  N   -0.000000   0.000000   0.000000  -0.000000   0.000000  -0.000000
     2  B    0.000000   0.000000  -0.000000  -0.000000  -0.000000   0.000000
     3  N    0.000000  -0.000000  -0.000000   0.000000  -0.000000  -0.000000
     4  B   -0.000000  -0.000000   0.000000  -0.000000   0.000000  -0.000000
     5  H    0.000000  -0.000000  -0.000000   0.000000  -0.000000  -0.000000
     6  H   -0.000000   0.000000  -0.000000  -0.000000  -0.000000  -0.000000
     7  H   -0.000000   0.000000  -0.000000   0.000000   0.000000  -0.000000
     8  H   -0.000000   0.000000   0.000000   0.000000  -0.000000   0.000000
     9  H    0.000000   0.000000   0.000000   0.000000  -0.000000  -0.000000
    10  H    0.000000   0.000000  -0.000000   0.000000   0.000000   0.000000
    11  H    0.000000  -0.000000   0.000000  -0.000000  -0.000000   0.000000
    12  H    0.000000   0.000000  -0.000000  -0.000000   0.000000   0.000000
               7          8          9         10         11         12
     1  N   -0.000000  -0.000000   0.000000   0.000000   0.000000   0.000000
     2  B    0.000000   0.000000   0.000000   0.000000  -0.000000   0.000000
     3  N   -0.000000   0.000000   0.000000  -0.000000   0.000000  -0.000000
     4  B    0.000000   0.000000   0.000000   0.000000  -0.000000  -0.000000
     5  H    0.000000  -0.000000  -0.000000   0.000000  -0.000000   0.000000
     6  H   -0.000000   0.000000  -0.000000   0.000000   0.000000   0.000000
     7  H    0.000000  -0.000000  -0.000000  -0.000000   0.000000  -0.000000
     8  H   -0.000000  -0.000000   0.000000  -0.000000   0.000000   0.000000
     9  H   -0.000000   0.000000   0.000000   0.000000   0.000000  -0.000000
    10  H   -0.000000  -0.000000   0.000000  -0.000000  -0.000000   0.000000
    11  H    0.000000   0.000000   0.000000  -0.000000   0.000000   0.000000
    12  H   -0.000000   0.000000  -0.000000   0.000000   0.000000   0.000000
 Mulliken charges and spin densities:
               1          2
     1  N   -0.550393  -0.000000
     2  B    0.224822  -0.000000
     3  N   -0.618679  -0.000000
     4  B    0.162596  -0.000000
     5  H    0.243401  -0.000000
     6  H   -0.055343  -0.000000
     7  H   -0.009764   0.000000
     8  H    0.264478   0.000000
     9  H    0.262235   0.000000
    10  H    0.238688  -0.000000
    11  H   -0.071987   0.000000
    12  H   -0.090054   0.000000
 Sum of Mulliken charges =   0.00000  -0.00000
 Mulliken charges and spin densities with hydrogens summed into heavy atoms:
               1          2
     1  N   -0.023680  -0.000000
     2  B    0.159716  -0.000000
     3  N   -0.136591  -0.000000
     4  B    0.000555  -0.000000
 APT charges:
               1
     1  N   -0.670131
     2  B    0.700871
     3  N   -0.661878
     4  B    0.784452
     5  H    0.166395
     6  H   -0.171170
     7  H   -0.275031
     8  H    0.215293
     9  H    0.218436
    10  H    0.149558
    11  H   -0.243037
    12  H   -0.213758
 Sum of APT charges =   0.00000
 APT charges with hydrogens summed into heavy atoms:
               1
     1  N   -0.236403
     2  B    0.254670
     3  N   -0.345925
     4  B    0.327658
 Electronic spatial extent (au):  <R**2>=            386.7881
 Charge=              0.0000 electrons
 Dipole moment (field-independent basis, Debye):
    X=             -0.9433    Y=             -2.8847    Z=              0.0148  Tot=              3.0350
 Quadrupole moment (field-independent basis, Debye-Ang):
   XX=            -23.6629   YY=            -26.4691   ZZ=            -27.5509
   XY=             -0.6718   XZ=             -1.6742   YZ=             -1.1430
 Traceless Quadrupole moment (field-independent basis, Debye-Ang):
   XX=              2.2314   YY=             -0.5748   ZZ=             -1.6566
   XY=             -0.6718   XZ=             -1.6742   YZ=             -1.1430
 Octapole moment (field-independent basis, Debye-Ang**2):
  XXX=             -5.4321  YYY=            -21.1650  ZZZ=             -0.6993  XYY=             -1.8647
  XXY=            -15.9604  XXZ=              0.5530  XZZ=              1.4759  YZZ=             -5.5051
  YYZ=              0.6468  XYZ=              1.1770
 Hexadecapole moment (field-independent basis, Debye-Ang**3):
 XXXX=           -301.4833 YYYY=           -146.9498 ZZZZ=            -46.5060 XXXY=              1.2923
 XXXZ=            -19.9576 YYYX=             -1.6548 YYYZ=             -2.3064 ZZZX=             -2.0604
 ZZZY=             -2.2362 XXYY=            -76.1621 XXZZ=            -62.4496 YYZZ=            -31.7551
 XXYZ=             -1.8652 YYXZ=              0.8239 ZZXY=             -3.2866
 N-N= 1.104886660217D+02 E-N=-6.014229955911D+02  KE= 1.625395201377D+02
  Exact polarizability:  51.984   0.179  45.953  -2.729  -0.399  30.939
 Approx polarizability:  65.369   0.466  63.467  -2.822  -0.674  43.356
                          Isotropic Fermi Contact Couplings
        Atom                 a.u.       MegaHertz       Gauss      10(-4) cm-1
     1  N(14)             -0.00000      -0.00000      -0.00000      -0.00000
     2  B(11)              0.00000       0.00000       0.00000       0.00000
     3  N(14)             -0.00000      -0.00000      -0.00000      -0.00000
     4  B(11)             -0.00000      -0.00000      -0.00000      -0.00000
     5  H(1)              -0.00000      -0.00000      -0.00000      -0.00000
     6  H(1)               0.00000       0.00000       0.00000       0.00000
     7  H(1)              -0.00000      -0.00000      -0.00000      -0.00000
     8  H(1)               0.00000       0.00000       0.00000       0.00000
     9  H(1)               0.00000       0.00000       0.00000       0.00000
    10  H(1)               0.00000       0.00000       0.00000       0.00000
    11  H(1)              -0.00000      -0.00000      -0.00000      -0.00000
    12  H(1)              -0.00000      -0.00000      -0.00000      -0.00000
 --------------------------------------------------------
       Center         ----  Spin Dipole Couplings  ----
                      3XX-RR        3YY-RR        3ZZ-RR
 --------------------------------------------------------
     1   Atom        0.000000      0.000000      0.000000
     2   Atom        0.000000      0.000000      0.000000
     3   Atom        0.000000      0.000000      0.000000
     4   Atom        0.000000      0.000000      0.000000
     5   Atom        0.000000      0.000000      0.000000
     6   Atom        0.000000      0.000000      0.000000
     7   Atom        0.000000      0.000000      0.000000
     8   Atom        0.000000      0.000000      0.000000
     9   Atom        0.000000      0.000000      0.000000
    10   Atom        0.000000      0.000000      0.000000
    11   Atom        0.000000      0.000000      0.000000
    12   Atom        0.000000      0.000000      0.000000
 --------------------------------------------------------
                        XY            XZ            YZ
 --------------------------------------------------------
     1   Atom        0.000000      0.000000      0.000000
     2   Atom        0.000000      0.000000      0.000000
     3   Atom        0.000000      0.000000      0.000000
     4   Atom        0.000000      0.000000      0.000000
     5   Atom        0.000000      0.000000      0.000000
     6   Atom        0.000000      0.000000      0.000000
     7   Atom        0.000000      0.000000      0.000000
     8   Atom        0.000000      0.000000      0.000000
     9   Atom        0.000000      0.000000      0.000000
    10   Atom        0.000000      0.000000      0.000000
    11   Atom        0.000000      0.000000      0.000000
    12   Atom        0.000000      0.000000      0.000000
 --------------------------------------------------------


 ---------------------------------------------------------------------------------
              Anisotropic Spin Dipole Couplings in Principal Axis System
 ---------------------------------------------------------------------------------

       Atom             a.u.   MegaHertz   Gauss  10(-4) cm-1        Axes

              Baa     0.0000     0.000     0.000     0.000  1.0000  0.0000  0.0000
     1 N(14)  Bbb     0.0000     0.000     0.000     0.000 -0.0000  1.0000  0.0000
              Bcc     0.0000     0.000     0.000     0.000  0.0000  0.0000  1.0000
 
              Baa     0.0000     0.000     0.000     0.000  1.0000  0.0000  0.0000
     2 B(11)  Bbb     0.0000     0.000     0.000     0.000 -0.0000  1.0000  0.0000
              Bcc     0.0000     0.000     0.000     0.000  0.0000  0.0000  1.0000
 
              Baa     0.0000     0.000     0.000     0.000  1.0000  0.0000  0.0000
     3 N(14)  Bbb     0.0000     0.000     0.000     0.000 -0.0000  1.0000  0.0000
              Bcc     0.0000     0.000     0.000     0.000  0.0000  0.0000  1.0000
 
              Baa     0.0000     0.000     0.000     0.000  1.0000  0.0000  0.0000
     4 B(11)  Bbb     0.0000     0.000     0.000     0.000 -0.0000  1.0000  0.0000
              Bcc     0.0000     0.000     0.000     0.000  0.0000  0.0000  1.0000
 
              Baa     0.0000     0.000     0.000     0.000  1.0000  0.0000  0.0000
     5 H(1)   Bbb     0.0000     0.000     0.000     0.000 -0.0000  1.0000  0.0000
              Bcc     0.0000     0.000     0.000     0.000  0.0000  0.0000  1.0000
 
              Baa     0.0000     0.000     0.000     0.000  1.0000  0.0000  0.0000
     6 H(1)   Bbb     0.0000     0.000     0.000     0.000 -0.0000  1.0000  0.0000
              Bcc     0.0000     0.000     0.000     0.000  0.0000  0.0000  1.0000
 
              Baa     0.0000     0.000     0.000     0.000  1.0000  0.0000  0.0000
     7 H(1)   Bbb     0.0000     0.000     0.000     0.000 -0.0000  1.0000  0.0000
              Bcc     0.0000     0.000     0.000     0.000  0.0000  0.0000  1.0000
 
              Baa     0.0000     0.000     0.000     0.000  1.0000  0.0000  0.0000
     8 H(1)   Bbb     0.0000     0.000     0.000     0.000 -0.0000  1.0000  0.0000
              Bcc     0.0000     0.000     0.000     0.000  0.0000  0.0000  1.0000
 
              Baa     0.0000     0.000     0.000     0.000  1.0000  0.0000  0.0000
     9 H(1)   Bbb     0.0000     0.000     0.000     0.000 -0.0000  1.0000  0.0000
              Bcc     0.0000     0.000     0.000     0.000  0.0000  0.0000  1.0000
 
              Baa     0.0000     0.000     0.000     0.000  1.0000  0.0000  0.0000
    10 H(1)   Bbb     0.0000     0.000     0.000     0.000 -0.0000  1.0000  0.0000
              Bcc     0.0000     0.000     0.000     0.000  0.0000  0.0000  1.0000
 
              Baa     0.0000     0.000     0.000     0.000  1.0000  0.0000  0.0000
    11 H(1)   Bbb     0.0000     0.000     0.000     0.000 -0.0000  1.0000  0.0000
              Bcc     0.0000     0.000     0.000     0.000  0.0000  0.0000  1.0000
 
              Baa     0.0000     0.000     0.000     0.000  1.0000  0.0000  0.0000
    12 H(1)   Bbb     0.0000     0.000     0.000     0.000 -0.0000  1.0000  0.0000
              Bcc     0.0000     0.000     0.000     0.000  0.0000  0.0000  1.0000
 

 ---------------------------------------------------------------------------------

 Calling FoFJK, ICntrl=    100127 FMM=F ISym2X=0 I1Cent= 0 IOpClX= 1 NMat=1 NMatS=1 NMatT=0.
 Full mass-weighted force constant matrix:
 Low frequencies --- -216.3877  -95.2536  -76.6064  -52.0756    0.0007    0.0007
 Low frequencies ---    0.0010   39.7417  194.4089
 ******    1 imaginary frequencies (negative Signs) ****** 
 Diagonal vibrational polarizability:
       95.5783483    1011.1865912     313.5150465
 Harmonic frequencies (cm**-1), IR intensities (KM/Mole), Raman scattering
 activities (A**4/AMU), depolarization ratios for plane and unpolarized
 incident light, reduced masses (AMU), force constants (mDyne/A),
 and normal coordinates:
                      1                      2                      3
                      A                      A                      A
 Frequencies --   -214.3591                19.1659               192.2579
 Red. masses --      1.9539                 3.9528                 1.9296
 Frc consts  --      0.0529                 0.0009                 0.0420
 IR Inten    --     12.0120                18.2075                 3.6190
  Atom  AN      X      Y      Z        X      Y      Z        X      Y      Z
     1   7    -0.01   0.02   0.01    -0.30   0.01   0.01    -0.03  -0.03  -0.12
     2   5     0.21  -0.03   0.05    -0.08  -0.05  -0.05     0.04  -0.03   0.17
     3   7     0.01   0.02  -0.01     0.32   0.09   0.04    -0.02   0.02   0.11
     4   5    -0.20  -0.03  -0.06     0.13  -0.04   0.03     0.04   0.05  -0.14
     5   1     0.26   0.19   0.22     0.09  -0.01  -0.19    -0.10  -0.21   0.10
     6   1     0.37   0.07   0.06     0.08   0.02   0.09     0.14  -0.09   0.54
     7   1     0.08  -0.19  -0.29    -0.09  -0.25  -0.09    -0.09   0.05  -0.02
     8   1    -0.18  -0.08  -0.07    -0.56  -0.15  -0.13    -0.13  -0.01  -0.41
     9   1    -0.01   0.15   0.11    -0.28   0.18   0.18     0.05  -0.08   0.01
    10   1    -0.11  -0.03  -0.07    -0.03  -0.21  -0.26    -0.21   0.09   0.15
    11   1    -0.50  -0.16  -0.13    -0.05  -0.16  -0.03     0.14   0.27  -0.16
    12   1    -0.07   0.11   0.24    -0.04   0.03  -0.01     0.03  -0.11  -0.36
                      4                      5                      6
                      A                      A                      A
 Frequencies --    285.2573               403.7114               436.5060
 Red. masses --      1.1765                 2.7651                 1.2569
 Frc consts  --      0.0564                 0.2655                 0.1411
 IR Inten    --     60.8302                12.0787                79.4011
  Atom  AN      X      Y      Z        X      Y      Z        X      Y      Z
     1   7    -0.07   0.01  -0.04     0.08   0.07  -0.04    -0.01  -0.01   0.03
     2   5     0.01  -0.02   0.06    -0.18   0.15   0.04    -0.06   0.00  -0.04
     3   7     0.00  -0.04  -0.03     0.16  -0.06   0.06    -0.04  -0.03  -0.06
     4   5    -0.01   0.00  -0.01    -0.15  -0.16  -0.09     0.10   0.02   0.02
     5   1     0.24   0.21   0.14     0.22   0.05   0.09     0.59   0.25   0.58
     6   1     0.05   0.05  -0.07    -0.19   0.10   0.17    -0.05  -0.05   0.14
     7   1     0.09  -0.11   0.14    -0.21   0.13  -0.06    -0.07   0.07  -0.04
     8   1    -0.01   0.01   0.12     0.31   0.30  -0.12    -0.09  -0.01  -0.19
     9   1    -0.15   0.04  -0.19     0.31  -0.26   0.24     0.09  -0.04   0.23
    10   1     0.67   0.33   0.36     0.23  -0.06   0.07    -0.20   0.06   0.01
    11   1     0.18   0.05   0.06    -0.21  -0.19  -0.11    -0.05   0.03  -0.06
    12   1    -0.09   0.01  -0.07    -0.19  -0.13  -0.08     0.19  -0.02   0.05
                      7                      8                      9
                      A                      A                      A
 Frequencies --    512.9544               629.8113               680.0646
 Red. masses --      1.1849                 1.2606                 1.1601
 Frc consts  --      0.1837                 0.2946                 0.3161
 IR Inten    --    161.0745                64.3705                10.6918
  Atom  AN      X      Y      Z        X      Y      Z        X      Y      Z
     1   7    -0.04  -0.00  -0.08    -0.05  -0.00  -0.09     0.01   0.01   0.00
     2   5     0.02  -0.01  -0.05     0.01  -0.01   0.09     0.02  -0.01  -0.04
     3   7    -0.04  -0.00  -0.00     0.03   0.01  -0.01    -0.01   0.00   0.01
     4   5     0.03   0.02   0.04    -0.02   0.01  -0.03    -0.07  -0.02   0.09
     5   1    -0.19  -0.03  -0.16     0.18   0.04   0.16     0.03   0.41  -0.09
     6   1     0.13  -0.01   0.16    -0.07   0.05  -0.24     0.11   0.03   0.01
     7   1    -0.01  -0.04  -0.10     0.06  -0.02   0.15     0.05  -0.12   0.02
     8   1     0.06  -0.00   0.16     0.30   0.02   0.69    -0.07   0.01  -0.19
     9   1     0.35  -0.01   0.77     0.05  -0.02   0.13     0.07   0.00   0.13
    10   1     0.25   0.12   0.13    -0.34  -0.18  -0.21     0.13  -0.30  -0.24
    11   1    -0.06  -0.09   0.02     0.13   0.14   0.01     0.21   0.48   0.05
    12   1     0.01   0.07   0.09     0.06  -0.06  -0.06    -0.07  -0.35  -0.38
                     10                     11                     12
                      A                      A                      A
 Frequencies --    723.1631               858.9115               895.4452
 Red. masses --      1.0718                 1.0879                 1.1382
 Frc consts  --      0.3302                 0.4728                 0.5377
 IR Inten    --      1.9960                67.2909                 1.7525
  Atom  AN      X      Y      Z        X      Y      Z        X      Y      Z
     1   7     0.03   0.00  -0.02     0.02   0.02  -0.00     0.01   0.00   0.01
     2   5     0.03  -0.00  -0.02     0.02  -0.02  -0.01    -0.02   0.00  -0.10
     3   7     0.01   0.00   0.01     0.03   0.01  -0.03     0.00   0.02  -0.02
     4   5    -0.04  -0.04  -0.01    -0.06  -0.01   0.02    -0.01  -0.01   0.03
     5   1     0.03   0.07   0.00     0.09  -0.29   0.16     0.06  -0.08   0.08
     6   1    -0.34  -0.34   0.20    -0.02   0.03  -0.22     0.38   0.00   0.67
     7   1    -0.05   0.55   0.05     0.10  -0.01   0.19    -0.01  -0.07  -0.05
     8   1    -0.24  -0.29   0.21    -0.13  -0.02  -0.24     0.18   0.03   0.37
     9   1    -0.09   0.45   0.07     0.10   0.07   0.22    -0.10  -0.00  -0.24
    10   1     0.08  -0.00   0.01    -0.27   0.18   0.09    -0.13   0.07   0.02
    11   1     0.04   0.01   0.01     0.46  -0.15   0.30     0.12  -0.09   0.09
    12   1     0.00  -0.08  -0.04    -0.42   0.12  -0.11    -0.25  -0.01  -0.15
                     13                     14                     15
                      A                      A                      A
 Frequencies --   1010.3614              1059.9528              1095.3496
 Red. masses --      1.2487                 1.6177                 1.4031
 Frc consts  --      0.7510                 1.0708                 0.9918
 IR Inten    --    290.7505                77.4722                93.8633
  Atom  AN      X      Y      Z        X      Y      Z        X      Y      Z
     1   7    -0.03  -0.03   0.03     0.04   0.02  -0.01    -0.10   0.02   0.04
     2   5    -0.02  -0.02  -0.05    -0.06   0.00  -0.00     0.11  -0.03  -0.04
     3   7     0.03  -0.00   0.02     0.06  -0.15  -0.02     0.03  -0.05  -0.03
     4   5    -0.10   0.01  -0.07    -0.05   0.14   0.01    -0.00   0.03   0.05
     5   1    -0.02   0.00  -0.03     0.04  -0.25  -0.02     0.02  -0.17   0.00
     6   1     0.29   0.14   0.10    -0.08  -0.08   0.17    -0.11  -0.19  -0.01
     7   1     0.13   0.31   0.19     0.04  -0.31  -0.01     0.00   0.56  -0.02
     8   1     0.03   0.05  -0.08    -0.09  -0.10   0.01     0.22   0.32  -0.08
     9   1     0.01  -0.12   0.04    -0.01   0.24   0.04     0.03  -0.46  -0.05
    10   1     0.03  -0.03  -0.01     0.04  -0.19  -0.05    -0.00   0.01   0.03
    11   1     0.41   0.09   0.14    -0.03   0.57  -0.11    -0.17   0.29  -0.11
    12   1     0.56  -0.00   0.42    -0.14   0.42   0.30    -0.25   0.11  -0.05
                     16                     17                     18
                      A                      A                      A
 Frequencies --   1128.8975              1138.7191              1245.6176
 Red. masses --      1.3669                 1.2194                 1.6903
 Frc consts  --      1.0264                 0.9316                 1.5452
 IR Inten    --     21.5579                 5.8721                75.2333
  Atom  AN      X      Y      Z        X      Y      Z        X      Y      Z
     1   7     0.01  -0.01  -0.01     0.02  -0.10  -0.01     0.00   0.02   0.00
     2   5    -0.01   0.01   0.02    -0.04   0.06   0.02    -0.01  -0.05  -0.00
     3   7     0.05   0.05  -0.09     0.01  -0.03  -0.01     0.04  -0.08  -0.01
     4   5    -0.05  -0.06   0.10     0.03   0.02   0.02    -0.07   0.22   0.04
     5   1    -0.03  -0.44   0.01     0.00  -0.04  -0.01     0.05  -0.20   0.03
     6   1    -0.02   0.03  -0.01     0.47   0.52  -0.18     0.03  -0.03  -0.01
     7   1    -0.01  -0.11  -0.04    -0.06   0.45   0.14     0.03   0.05   0.09
     8   1    -0.04  -0.06   0.02    -0.15  -0.25   0.04     0.04   0.07  -0.05
     9   1    -0.01   0.05  -0.00    -0.03   0.08   0.03    -0.00   0.08   0.02
    10   1    -0.13   0.44   0.24     0.03  -0.02   0.00     0.08  -0.13  -0.04
    11   1    -0.20   0.39  -0.10    -0.23   0.08  -0.10    -0.25  -0.52   0.18
    12   1     0.35  -0.40  -0.01    -0.22   0.06  -0.13     0.32  -0.38  -0.48
                     19                     20                     21
                      A                      A                      A
 Frequencies --   1332.2447              1478.5805              1625.3302
 Red. masses --      2.1872                 1.1328                 1.2758
 Frc consts  --      2.2872                 1.4591                 1.9857
 IR Inten    --     52.8398                70.6780               126.5027
  Atom  AN      X      Y      Z        X      Y      Z        X      Y      Z
     1   7    -0.05  -0.14   0.00    -0.01  -0.03   0.01    -0.04  -0.12   0.01
     2   5     0.09   0.27  -0.01     0.03   0.08  -0.05     0.02   0.06  -0.01
     3   7     0.01  -0.04  -0.00    -0.00   0.01   0.00     0.02  -0.02   0.00
     4   5    -0.04   0.06   0.02     0.00  -0.01  -0.03     0.00   0.00   0.00
     5   1     0.03  -0.06   0.02    -0.02   0.04  -0.03    -0.03   0.19  -0.12
     6   1    -0.31  -0.01   0.07    -0.13  -0.10   0.17    -0.07   0.01   0.03
     7   1    -0.07  -0.15  -0.52     0.48  -0.19   0.72     0.08  -0.04   0.01
     8   1    -0.20  -0.32   0.11    -0.11  -0.11  -0.01     0.48   0.40  -0.23
     9   1    -0.00  -0.40  -0.04     0.05  -0.18   0.04    -0.22   0.59   0.11
    10   1     0.05  -0.03   0.01    -0.04   0.02   0.00    -0.17   0.12   0.10
    11   1     0.31  -0.10   0.23    -0.27  -0.03  -0.13    -0.01  -0.01   0.00
    12   1     0.09  -0.05  -0.03    -0.01  -0.00  -0.06    -0.01   0.00  -0.02
                     22                     23                     24
                      A                      A                      A
 Frequencies --   1634.0417              2537.2748              2578.3377
 Red. masses --      1.1718                 1.0728                 1.0622
 Frc consts  --      1.8435                 4.0692                 4.1605
 IR Inten    --     32.8075               151.0607               153.6972
  Atom  AN      X      Y      Z        X      Y      Z        X      Y      Z
     1   7     0.01   0.04  -0.00     0.00   0.00   0.00    -0.00  -0.00   0.00
     2   5    -0.01  -0.02   0.00    -0.05  -0.02   0.02     0.04   0.03  -0.02
     3   7     0.05  -0.09   0.00    -0.00   0.01   0.00    -0.00  -0.00  -0.00
     4   5    -0.00   0.03   0.01     0.00  -0.05  -0.00     0.01  -0.04  -0.04
     5   1    -0.10   0.56  -0.36    -0.01  -0.00   0.00     0.01  -0.01   0.00
     6   1     0.03   0.00  -0.01    -0.08   0.10   0.05     0.12  -0.15  -0.05
     7   1    -0.04   0.02  -0.04     0.61   0.12  -0.34    -0.54  -0.10   0.27
     8   1    -0.14  -0.12   0.08    -0.01  -0.00  -0.00     0.01   0.01   0.00
     9   1     0.07  -0.18  -0.04     0.00  -0.00   0.00    -0.00   0.00  -0.00
    10   1    -0.48   0.35   0.30    -0.00   0.00  -0.01     0.01  -0.00   0.00
    11   1    -0.01  -0.01   0.03    -0.18   0.10   0.38    -0.26   0.19   0.60
    12   1     0.02   0.01  -0.02     0.19   0.38  -0.32     0.18   0.25  -0.16
                     25                     26                     27
                      A                      A                      A
 Frequencies --   2620.4601              2702.4991              3581.1536
 Red. masses --      1.1193                 1.1129                 1.0512
 Frc consts  --      4.5284                 4.7891                 7.9430
 IR Inten    --    120.9865               159.5317                22.8412
  Atom  AN      X      Y      Z        X      Y      Z        X      Y      Z
     1   7    -0.00  -0.00  -0.00     0.00   0.01  -0.00     0.01  -0.06  -0.00
     2   5     0.01   0.01  -0.00     0.06  -0.07  -0.03     0.00   0.00  -0.00
     3   7     0.00  -0.00  -0.00     0.00  -0.00  -0.00     0.00  -0.00  -0.00
     4   5    -0.05  -0.04   0.08    -0.00  -0.00  -0.00    -0.00   0.00   0.00
     5   1     0.00  -0.00   0.01     0.00  -0.00  -0.00    -0.01   0.00   0.01
     6   1     0.04  -0.06  -0.03    -0.53   0.76   0.27    -0.00   0.00  -0.00
     7   1    -0.19  -0.04   0.09    -0.19  -0.05   0.11     0.01   0.00   0.00
     8   1     0.00  -0.00   0.00     0.00   0.00   0.00    -0.54   0.64   0.22
     9   1    -0.00   0.00   0.00     0.01  -0.00  -0.00     0.44   0.14  -0.20
    10   1    -0.00  -0.00   0.01     0.00  -0.00   0.00     0.00   0.01  -0.00
    11   1     0.22  -0.16  -0.51    -0.01   0.01   0.03     0.00  -0.00  -0.00
    12   1     0.35   0.57  -0.40     0.04   0.04  -0.02     0.00  -0.00  -0.00
                     28                     29                     30
                      A                      A                      A
 Frequencies --   3613.4258              3707.4684              3711.2430
 Red. masses --      1.0487                 1.0964                 1.0978
 Frc consts  --      8.0677                 8.8789                 8.9084
 IR Inten    --     12.9983                45.0334                 9.2768
  Atom  AN      X      Y      Z        X      Y      Z        X      Y      Z
     1   7    -0.00  -0.00   0.00    -0.08   0.01   0.03     0.00  -0.00  -0.00
     2   5    -0.00  -0.00   0.00    -0.00   0.00   0.00     0.00  -0.00   0.00
     3   7    -0.03   0.05  -0.01    -0.00  -0.00   0.00    -0.04  -0.02   0.07
     4   5     0.00  -0.00  -0.00     0.00  -0.00   0.00    -0.00  -0.00   0.00
     5   1     0.49  -0.14  -0.45     0.02  -0.01  -0.02     0.54  -0.17  -0.47
     6   1     0.00  -0.00  -0.00     0.00  -0.00  -0.00    -0.00   0.00   0.00
     7   1     0.01  -0.00  -0.00     0.00  -0.00  -0.00    -0.00  -0.00   0.00
     8   1    -0.01   0.00   0.00     0.29  -0.37  -0.12    -0.02   0.02   0.01
     9   1     0.01   0.00  -0.00     0.75   0.25  -0.34    -0.04  -0.01   0.02
    10   1    -0.07  -0.47   0.56     0.00   0.02  -0.03     0.04   0.44  -0.50
    11   1     0.00  -0.00   0.00     0.00   0.00  -0.00     0.00   0.00  -0.00
    12   1     0.00  -0.00   0.00    -0.00   0.00  -0.00     0.00   0.00  -0.00

 -------------------
 - Thermochemistry -
 -------------------
 Temperature   298.150 Kelvin.  Pressure   1.00000 Atm.
 Atom     1 has atomic number  7 and mass  14.00307
 Atom     2 has atomic number  5 and mass  11.00931
 Atom     3 has atomic number  7 and mass  14.00307
 Atom     4 has atomic number  5 and mass  11.00931
 Atom     5 has atomic number  1 and mass   1.00783
 Atom     6 has atomic number  1 and mass   1.00783
 Atom     7 has atomic number  1 and mass   1.00783
 Atom     8 has atomic number  1 and mass   1.00783
 Atom     9 has atomic number  1 and mass   1.00783
 Atom    10 has atomic number  1 and mass   1.00783
 Atom    11 has atomic number  1 and mass   1.00783
 Atom    12 has atomic number  1 and mass   1.00783
 Molecular mass:    58.08736 amu.
 Principal axes and moments of inertia in atomic units:
                           1         2         3
     Eigenvalues --   135.87202 421.04815 530.36219
           X            0.99988  -0.00201  -0.01563
           Y            0.00189   0.99997  -0.00770
           Z            0.01564   0.00767   0.99985
 This molecule is an asymmetric top.
 Rotational symmetry number  1.
 Rotational temperatures (Kelvin)      0.63747     0.20571     0.16331
 Rotational constants (GHZ):          13.28265     4.28631     3.40285
    1 imaginary frequencies ignored.
 Zero-point vibrational energy     259818.2 (Joules/Mol)
                                   62.09803 (Kcal/Mol)
 Warning -- explicit consideration of   6 degrees of freedom as
           vibrations may cause significant error
 Vibrational temperatures:     27.58   276.62   410.42   580.85   628.03
          (Kelvin)            738.03   906.16   978.46  1040.47  1235.78
                             1288.35  1453.68  1525.04  1575.96  1624.23
                             1638.36  1792.17  1916.80  2127.35  2338.49
                             2351.02  3650.57  3709.65  3770.26  3888.29
                             5152.48  5198.91  5334.22  5339.65
 
 Zero-point correction=                           0.098960 (Hartree/Particle)
 Thermal correction to Energy=                    0.105157
 Thermal correction to Enthalpy=                  0.106101
 Thermal correction to Gibbs Free Energy=         0.069232
 Sum of electronic and zero-point Energies=           -163.976813
 Sum of electronic and thermal Energies=              -163.970616
 Sum of electronic and thermal Enthalpies=            -163.969671
 Sum of electronic and thermal Free Energies=         -164.006541
 
                     E (Thermal)             CV                S
                      KCal/Mol        Cal/Mol-Kelvin    Cal/Mol-Kelvin
 Total                   65.987             21.221             77.598
 Electronic               0.000              0.000              0.000
 Translational            0.889              2.981             38.099
 Rotational               0.889              2.981             24.921
 Vibrational             64.209             15.259             14.578
 Vibration     1          0.593              1.986              6.719
 Vibration     2          0.634              1.851              2.206
 Vibration     3          0.683              1.701              1.502
 Vibration     4          0.769              1.462              0.949
 Vibration     5          0.797              1.391              0.838
 Vibration     6          0.868              1.221              0.627
                       Q            Log10(Q)             Ln(Q)
 Total Bot       0.143121D-31        -31.844298        -73.324205
 Total V=0       0.471932D+14         13.673879         31.485270
 Vib (Bot)       0.131906D-43        -43.879737       -101.036828
 Vib (Bot)    1  0.108083D+02          1.033758          2.380315
 Vib (Bot)    2  0.104014D+01          0.017091          0.039354
 Vib (Bot)    3  0.672110D+00         -0.172559         -0.397333
 Vib (Bot)    4  0.440291D+00         -0.356260         -0.820319
 Vib (Bot)    5  0.397132D+00         -0.401065         -0.923486
 Vib (Bot)    6  0.316702D+00         -0.499349         -1.149793
 Vib (V=0)       0.434951D+02          1.638440          3.772648
 Vib (V=0)    1  0.113199D+02          1.053841          2.426559
 Vib (V=0)    2  0.165407D+01          0.218555          0.503242
 Vib (V=0)    3  0.133769D+01          0.126357          0.290948
 Vib (V=0)    4  0.116623D+01          0.066783          0.153772
 Vib (V=0)    5  0.113852D+01          0.056343          0.129733
 Vib (V=0)    6  0.109186D+01          0.038168          0.087884
 Electronic      0.100000D+01          0.000000          0.000000
 Translational   0.174011D+08          7.240576         16.672043
 Rotational      0.623538D+05          4.794863         11.040580
 ***** Axes restored to original set *****
 -------------------------------------------------------------------
 Center     Atomic                   Forces (Hartrees/Bohr)
 Number     Number              X              Y              Z
 -------------------------------------------------------------------
      1        7           0.000001071   -0.000006050    0.000010309
      2        5          -0.010443506   -0.002217784    0.005152892
      3        7          -0.000016409    0.000013184   -0.000005443
      4        5           0.014950325   -0.003258314    0.004461317
      5        1          -0.000002289   -0.000002333    0.000014389
      6        1          -0.000003285   -0.000002810    0.000005298
      7        1          -0.003179475    0.003863609   -0.014856410
      8        1          -0.000001639    0.000004064    0.000001396
      9        1          -0.000004279    0.000000101   -0.000005353
     10        1           0.000004862    0.000012636   -0.000008354
     11        1          -0.001300774    0.001588448    0.005232019
     12        1          -0.000004602    0.000005249   -0.000002060
 -------------------------------------------------------------------
 Cartesian Forces:  Max     0.014950325 RMS     0.004320204

 GradGradGradGradGradGradGradGradGradGradGradGradGradGradGradGradGradGrad
 Berny optimization.
 Search for a local minimum.
 Step number   1 out of a maximum of    2
 All quantities printed in internal units (Hartrees-Bohrs-Radians)
 Second derivative matrix not updated -- analytic derivatives used.
 ITU=  0
     Eigenvalues ---   -0.00432  -0.00012   0.00272   0.00440   0.01064
     Eigenvalues ---    0.01329   0.02023   0.02490   0.02623   0.03475
     Eigenvalues ---    0.03516   0.05510   0.05699   0.06831   0.10228
     Eigenvalues ---    0.11327   0.11862   0.12259   0.12791   0.14942
     Eigenvalues ---    0.24445   0.26733   0.51111   0.52941   0.58470
     Eigenvalues ---    0.63183   1.02416   1.04022   1.12557   1.21841
 Eigenvalue     1 is  -4.32D-03 should be greater than     0.000000 Eigenvector:
                          X11       X6        X4        X2        Z7
   1                    0.46899  -0.40885   0.30763  -0.29832   0.27675
                          Z5        Z12       X5        Y5        Z11
   1                   -0.21077  -0.18726  -0.18404  -0.17670   0.15738
 Eigenvalue     2 is  -1.23D-04 should be greater than     0.000000 Eigenvector:
                          X8        X3        Y7        X1        X9
   1                    0.51926  -0.42129   0.27126   0.26365   0.24841
                          Z10       Z9        Y3        X4        Y9
   1                    0.19804  -0.17654  -0.17596  -0.17164  -0.16886
 Quadratic step=2.986D+01 exceeds max=3.000D-01 adjusted using Lamda=-2.683D-02.
 Angle between NR and scaled steps=  60.87 degrees.
 Angle between quadratic step and forces=  47.26 degrees.
 Linear search not attempted -- first point.
 B after Tr=     0.009291    0.003257    0.005143
         Rot=    0.999999    0.000499    0.001532   -0.000292 Ang=   0.19 deg.
 Variable       Old X    -DE/DX   Delta X   Delta X   Delta X     New X
                                 (Linear)    (Quad)   (Total)
    X1       -2.94391   0.00000   0.00000  -0.04059  -0.03045  -2.97436
    Y1       -1.14164  -0.00001   0.00000  -0.00479  -0.00334  -1.14498
    Z1       -0.06070   0.00001   0.00000   0.00698   0.00413  -0.05657
    X2       -2.16228  -0.01044   0.00000  -0.09341  -0.08406  -2.24634
    Y2        1.35191  -0.00222   0.00000   0.00910   0.01077   1.36268
    Z2       -0.21747   0.00515   0.00000  -0.05827  -0.06140  -0.27887
    X3        2.90736  -0.00002   0.00000   0.07107   0.08097   2.98834
    Y3       -1.11365   0.00001   0.00000   0.02005   0.02505  -1.08860
    Z3       -0.02566  -0.00001   0.00000   0.02833   0.04369   0.01803
    X4        1.99113   0.01495   0.00000   0.14085   0.14842   2.13955
    Y4        1.43865  -0.00326   0.00000   0.00293   0.00772   1.44637
    Z4        0.22304   0.00446   0.00000   0.06128   0.07151   0.29456
    X5        4.31043  -0.00000   0.00000   0.00451   0.01859   4.32901
    Y5       -1.54260  -0.00000   0.00000  -0.03000  -0.02548  -1.56808
    Z5       -1.23941   0.00001   0.00000  -0.02882  -0.00888  -1.24830
    X6       -3.41577  -0.00000   0.00000  -0.07077  -0.06463  -3.48041
    Y6        3.10507  -0.00000   0.00000  -0.00803  -0.00637   3.09869
    Z6        0.41689   0.00001   0.00000   0.02966   0.02102   0.43791
    X7       -0.25470  -0.00318   0.00000  -0.11307  -0.10029  -0.35499
    Y7        1.75703   0.00386   0.00000   0.03645   0.03801   1.79504
    Z7       -1.36555  -0.01486   0.00000  -0.11439  -0.11216  -1.47771
    X8       -1.75049  -0.00000   0.00000  -0.04600  -0.03345  -1.78394
    Y8       -2.55296   0.00000   0.00000   0.00309   0.00472  -2.54824
    Z8       -0.55227   0.00000   0.00000  -0.02499  -0.02280  -0.57507
    X9       -4.60216  -0.00000   0.00000  -0.01225  -0.00421  -4.60638
    Y9       -1.70064   0.00000   0.00000  -0.02122  -0.01992  -1.72056
    Z9        0.68962  -0.00001   0.00000   0.05425   0.04697   0.73659
   X10        2.77312   0.00000   0.00000  -0.01767  -0.01125   2.76187
   Y10       -2.35622   0.00001   0.00000  -0.03321  -0.02695  -2.38318
   Z10        1.41221  -0.00001   0.00000  -0.02698  -0.01101   1.40120
   X11        1.06743  -0.00130   0.00000   0.02241   0.02370   1.09113
   Y11        2.04440   0.00159   0.00000  -0.01019  -0.00408   2.04032
   Z11        2.20059   0.00523   0.00000   0.02168   0.02812   2.22871
   X12        2.98386  -0.00000   0.00000   0.04613   0.05666   3.04052
   Y12        3.08022   0.00001   0.00000  -0.00416  -0.00013   3.08009
   Z12       -0.98538  -0.00000   0.00000  -0.01055   0.00081  -0.98457
         Item               Value     Threshold  Converged?
 Maximum Force            0.014950     0.000450     NO 
 RMS     Force            0.004320     0.000300     NO 
 Maximum Displacement     0.148425     0.001800     NO 
 RMS     Displacement     0.049401     0.001200     NO 
 Predicted change in Energy=-3.954019D-03
 GradGradGradGradGradGradGradGradGradGradGradGradGradGradGradGradGradGrad


 ----------------------------------------------------------------------

 Electric dipole moment (input orientation):
 (Debye = 10**-18 statcoulomb cm , SI units = C m)
                  (au)            (Debye)         (10**-30 SI)
   Tot        0.119408D+01      0.303504D+01      0.101238D+02
   x         -0.371138D+00     -0.943339D+00     -0.314664D+01
   y         -0.113492D+01     -0.288468D+01     -0.962226D+01
   z          0.581464D-02      0.147793D-01      0.492986D-01

 Dipole polarizability, Alpha (input orientation).
 (esu units = cm**3 , SI units = C**2 m**2 J**-1)
 Alpha(0;0):
               (au)            (10**-24 esu)      (10**-40 SI)
   iso        0.429590D+02      0.636587D+01      0.708299D+01
   aniso      0.193713D+02      0.287054D+01      0.319390D+01
   xx         0.519842D+02      0.770326D+01      0.857104D+01
   yx         0.179456D+00      0.265926D-01      0.295883D-01
   yy         0.459535D+02      0.680960D+01      0.757671D+01
   zx        -0.272860D+01     -0.404337D+00     -0.449886D+00
   zy        -0.399279D+00     -0.591671D-01     -0.658323D-01
   zz         0.309394D+02      0.458475D+01      0.510122D+01

 ----------------------------------------------------------------------

 Dipole orientation:
     7         -2.34412823          0.69246123          1.99979803
     5         -2.41943847          0.56553669         -0.61392196
     7          2.94727576         -0.99160081          0.15470234
     5          1.44608945         -0.22805402         -1.98516220
     1          3.96430448         -2.60102880          0.12039546
     1         -3.87065574          1.71406201         -1.88752827
     1         -1.17118750         -1.04555060         -1.59746824
     1         -1.00332307         -0.26816170          2.96787428
     1         -3.44541289          1.83664377          3.05016841
     1          3.63814679          0.28899473          1.38444077
     1          1.04776230          1.98425525         -2.26417420
     1          1.48518666         -1.50264644         -3.85984292

 Electric dipole moment (dipole orientation):
 (Debye = 10**-18 statcoulomb cm , SI units = C m)
                  (au)            (Debye)         (10**-30 SI)
   Tot        0.119408D+01      0.303504D+01      0.101238D+02
   x          0.000000D+00      0.000000D+00      0.000000D+00
   y          0.000000D+00      0.000000D+00      0.000000D+00
   z          0.119408D+01      0.303504D+01      0.101238D+02

 Dipole polarizability, Alpha (dipole orientation).
 (esu units = cm**3 , SI units = C**2 m**2 J**-1)
 Alpha(0;0):
               (au)            (10**-24 esu)      (10**-40 SI)
   iso        0.429590D+02      0.636587D+01      0.708299D+01
   aniso      0.193713D+02      0.287054D+01      0.319390D+01
   xx         0.478744D+02      0.709426D+01      0.789342D+01
   yx        -0.800175D+01     -0.118574D+01     -0.131931D+01
   yy         0.343490D+02      0.508999D+01      0.566338D+01
   zx        -0.148461D+01     -0.219997D+00     -0.244780D+00
   zy         0.169656D+01      0.251404D+00      0.279725D+00
   zz         0.466537D+02      0.691337D+01      0.769216D+01

 ----------------------------------------------------------------------
 1\1\GINC-MNODE009\Freq\UB3LYP\6-31G(d,p)\B2H8N2\MARIAHARRIS\03-Jul-202
 0\0\\#freq ub3lyp/6-31G(d,p) scf=(maxcycles=1024)\\something title\\0,
 1\N,-1.55785,-0.60413,-0.03212\B,-1.14423,0.7154,-0.11508\N,1.53851,-0
 .58932,-0.01358\B,1.05366,0.7613,0.11803\H,2.28098,-0.81631,-0.65587\H
 ,-1.80755,1.64313,0.22061\H,-0.13478,0.92978,-0.72262\H,-0.92632,-1.35
 097,-0.29225\H,-2.43536,-0.89994,0.36493\H,1.46747,-1.24686,0.74731\H,
 0.56486,1.08185,1.1645\H,1.57899,1.62998,-0.52144\\Version=EM64L-G16Re
 vA.03\State=1-A\HF=-164.0757721\S2=0.\S2-1=0.\S2A=0.\RMSD=7.285e-09\RM
 SF=4.320e-03\ZeroPoint=0.0989595\Thermal=0.1051566\Dipole=-0.3711381,-
 1.1349212,0.0058146\DipoleDeriv=-0.6564026,-0.1527592,-0.1412379,-0.36
 11023,-0.8053085,-0.0275959,-0.0894567,-0.0141054,-0.5486834,0.951367,
 0.1326259,0.043411,0.3305071,0.8322679,0.0832831,-0.1408701,0.1224812,
 0.318977,-0.700581,-0.0165997,-0.1763811,0.3668843,-0.8888279,-0.09283
 89,-0.0740924,-0.1907825,-0.3962239,1.1336482,-0.2459633,0.0566973,-0.
 4524941,0.8059729,-0.0632502,0.1154075,-0.0809085,0.4137357,0.157497,0
 .0738277,0.0904139,0.0603392,0.1630774,0.0165933,0.0431216,0.0451456,0
 .1786098,-0.234816,0.0914244,0.0041805,0.047514,-0.1826884,-0.0196386,
 0.0577814,-0.0612987,-0.0960057,-0.6241206,0.09549,-0.0860859,0.065535
 1,-0.0535215,-0.0189403,-0.1532536,0.0224906,-0.1474512,0.2378903,0.04
 17619,0.0497687,0.0374628,0.149169,0.0034515,0.0431636,0.0282055,0.258
 8188,0.2042085,0.0079674,0.0593685,-0.0397938,0.1753782,0.0039528,0.08
 5812,0.0042665,0.2757213,0.175284,0.0585057,0.0582858,0.0167506,0.1309
 244,0.0661559,0.0554079,0.0701433,0.142466,-0.3629809,-0.0086219,-0.00
 31545,0.0041121,-0.1131933,-0.0169746,0.0369622,-0.0615293,-0.2529355,
 -0.2809938,-0.0776589,0.0447339,-0.0757151,-0.2132502,0.065802,0.02001
 66,0.1158918,-0.1470291\Polar=51.9842041,0.1794559,45.953489,-2.728601
 3,-0.3992793,30.939402\Quadrupole=1.658966,-0.4273402,-1.2316258,-0.49
 94841,-1.2447013,-0.8497988\PG=C01 [X(B2H8N2)]\NImag=1\\0.67538085,0.0
 3267207,0.77538636,-0.26637997,0.00616804,0.15841697,-0.10631583,-0.08
 410511,0.02751003,0.36858855,-0.08861023,-0.38277992,0.01894437,0.0235
 6012,0.60951228,0.02746589,0.01962022,-0.04408375,-0.15421746,0.009030
 99,0.16632308,-0.00276504,0.00222778,0.00071443,-0.00402132,0.00604980
 ,-0.00161438,0.37156372,0.00087240,0.00719839,-0.00134845,-0.00610357,
 -0.01384702,0.01138115,-0.19680113,0.58034412,0.00237861,0.00207677,0.
 00121282,-0.00261065,-0.00173985,-0.00140970,-0.28599884,-0.16310439,0
 .53589793,0.00002458,0.00661881,-0.00575820,-0.02027595,-0.01799148,0.
 03413012,-0.07777349,0.05189100,0.02176674,0.20498252,-0.00928303,-0.0
 0882763,0.00177600,0.01054103,-0.00147321,-0.00563077,0.09170620,-0.26
 638483,-0.00211292,-0.02893755,0.47474057,0.00136247,-0.00336263,-0.00
 564496,0.01081003,-0.00169743,0.02328157,0.03270020,-0.02350018,-0.071
 49505,-0.15012135,-0.01437681,0.34805916,-0.00057292,0.00058899,-0.000
 39687,-0.00108812,0.00061300,0.00018311,-0.25471115,0.08400828,0.22206
 176,-0.00320290,-0.00453546,0.00236049,0.26086186,-0.00068428,0.000668
 64,-0.00022789,-0.00108243,-0.00128164,-0.00076758,0.08442058,-0.07156
 309,-0.04350764,0.01913471,-0.00105513,-0.01890490,-0.08195016,0.07009
 978,-0.00088803,0.00018709,0.00003056,-0.00115965,0.00090846,-0.001084
 41,0.20084204,-0.03522745,-0.19946177,0.00340766,-0.00223594,-0.000901
 41,-0.21946494,0.04664546,0.21591885,0.01082864,-0.00703827,-0.0009141
 2,-0.10438088,0.08926837,0.03225215,-0.00189563,0.00221948,0.00029575,
 0.00451065,-0.00001412,0.00477722,-0.00048340,0.00016391,-0.00052493,0
 .10059564,0.01411077,-0.01411668,-0.00704505,0.08424272,-0.15935371,-0
 .04398001,-0.00019021,0.00095868,-0.00002921,0.00048851,0.00067766,0.0
 0176328,-0.00020908,0.00004919,-0.00012776,-0.09410558,0.16989844,0.00
 010521,0.00260447,0.00744081,0.03584518,-0.04602302,-0.05262190,0.0003
 6862,-0.00248934,0.00120174,-0.00669518,0.00107046,-0.00570641,0.00001
 480,0.00024511,0.00032180,-0.03903539,0.04918129,0.04050137,-0.0082468
 1,-0.01012774,0.00852184,-0.15529244,-0.01755474,0.06801565,-0.0087490
 3,0.02588087,0.00039765,0.01396360,-0.00900724,-0.00568607,-0.00076330
 ,0.00007429,-0.00227958,-0.00776361,-0.00333590,0.00877212,0.19177457,
 -0.01842898,-0.00205594,0.00960848,-0.02280666,-0.03251393,0.01405398,
 0.00740903,-0.00489336,0.00436353,0.00251682,-0.00174481,0.00226613,0.
 00024743,-0.00005663,0.00035807,0.01022701,0.00367126,-0.00646030,0.02
 620401,0.04070047,-0.00108290,-0.00418783,0.00545738,0.08766762,0.0234
 6390,-0.07428047,0.00132929,0.00354273,0.00378543,-0.01430708,0.000212
 71,-0.03284460,0.00073247,0.00004027,0.00028153,0.00237428,-0.00008898
 ,0.00365111,-0.06469046,-0.02142883,0.09989444,-0.20431819,0.16767329,
 0.07916132,0.01194805,-0.00194928,-0.00391006,0.00349402,0.00611672,0.
 00195624,0.00508075,-0.00638513,-0.00012137,0.00010047,0.00039474,0.00
 039225,0.00038946,-0.00242623,0.00269916,-0.00451496,0.00000391,-0.002
 19776,0.20529143,0.18049639,-0.27525061,-0.07477842,0.01855040,-0.0187
 7876,-0.00817164,0.00128536,0.00007718,-0.00003900,-0.00077190,-0.0010
 0773,-0.00036994,0.00020424,0.00016311,0.00015771,-0.00238848,-0.00274
 267,0.00038492,0.00074272,0.00111073,0.00039373,-0.18742917,0.28447598
 ,0.07810364,-0.06613254,-0.04638325,-0.00402295,-0.00067950,0.00203475
 ,0.00034520,0.00019922,-0.00221446,0.00223568,-0.00035627,0.00095423,0
 .00079959,0.00056215,0.00037946,0.00251699,0.00018974,0.00569332,-0.00
 259726,0.00022621,-0.00277475,-0.08062576,0.07766386,0.04978333,-0.357
 27495,-0.09678851,0.15607971,-0.00368454,0.00060624,0.00163945,-0.0003
 7288,-0.00161667,-0.00045991,-0.00203195,0.00082391,0.00107828,-0.0000
 4150,-0.00005181,0.00000650,-0.00026232,0.00065159,-0.00178761,0.00243
 931,-0.00049557,0.00145946,-0.01308099,-0.01125108,0.00482770,0.373200
 79,-0.10950715,-0.09954360,0.04712277,-0.02365601,-0.00027219,0.011242
 48,0.00119707,0.00163622,0.00032540,0.00177765,-0.00238195,0.00177855,
 0.00000455,0.00001151,-0.00001809,0.00149765,0.00096102,-0.00052430,-0
 .00173707,-0.00340773,-0.00077475,0.02394570,0.01144897,-0.01116579,0.
 10757237,0.09151952,0.15915365,0.04292798,-0.08131324,0.00136724,-0.00
 102663,0.00008568,-0.00073308,-0.00099610,-0.00018551,-0.00309106,0.00
 052310,-0.00005238,-0.00008247,-0.00003842,-0.00003818,-0.00183984,0.0
 0006118,-0.00343345,0.00339767,0.00026031,0.00443992,0.00454818,0.0047
 1250,-0.00559387,-0.16310528,-0.04697126,0.08484508,0.00031030,-0.0026
 5485,0.00135620,0.00269451,0.00407022,-0.00202929,-0.03142574,0.015769
 93,0.03331065,0.00351366,-0.00160429,-0.00711117,-0.00229801,-0.021077
 18,0.01957082,-0.00023395,-0.00034837,0.00049197,-0.00374210,0.0013310
 8,-0.00101677,-0.00207201,-0.00007300,-0.00167939,0.00015115,-0.000311
 99,0.00010618,0.03358109,-0.00007396,-0.00083224,-0.00008504,0.0009787
 2,0.00095623,0.00002318,-0.00167513,-0.21464314,0.20866388,-0.00472581
 ,-0.01421551,0.02132927,0.00127134,0.00577431,-0.01024659,0.00001229,0
 .00001054,0.00006662,-0.00160795,-0.00027605,-0.00088734,-0.00051198,0
 .00036756,-0.00013538,0.00012486,-0.00001445,0.00008370,0.00510961,0.2
 2466223,0.00017275,-0.00066918,-0.00006096,0.00101621,0.00110161,0.000
 04164,0.05055712,0.21021817,-0.27512968,-0.00157149,-0.00679746,0.0039
 8503,-0.00431754,0.01551129,-0.01573159,-0.00000079,-0.00014618,-0.000
 09281,-0.00025581,0.00031968,-0.00033904,-0.00149893,-0.00001835,-0.00
 046674,0.00017116,-0.00022915,0.00011966,-0.04419856,-0.21713943,0.285
 99366,-0.00365920,-0.00758062,-0.00131466,0.00991852,0.00413661,-0.000
 12623,-0.00124198,0.00822493,0.01121255,-0.06043493,0.01601046,0.06293
 351,0.00263697,0.00263606,0.00196580,0.00023107,0.00100667,-0.00138275
 ,-0.00682758,-0.00116016,-0.01426921,-0.00171832,0.00026478,-0.0000796
 5,0.00111082,0.00005053,0.00048952,-0.00253051,-0.00179872,-0.00115274
 ,0.06246428,-0.00143210,-0.00002388,-0.00071439,-0.00054393,-0.0017101
 1,-0.00332011,0.01191137,-0.00401770,-0.01893579,0.02143730,-0.0474995
 0,-0.03433552,-0.00013711,-0.00416628,-0.00131161,0.00058833,0.0001540
 0,0.00139267,-0.00404575,0.00045052,-0.00059601,0.00010639,0.00010727,
 -0.00026494,0.00020837,0.00003771,0.00015967,0.00004717,0.00207798,-0.
 00022397,-0.02499731,0.04903363,-0.00010567,0.00042630,0.00294314,0.00
 110648,-0.00077536,-0.01264683,0.00137405,-0.00028035,0.00198889,0.070
 02439,-0.04250579,-0.17099054,-0.00016244,0.00015319,0.00125740,0.0003
 2179,0.00024560,0.00209955,-0.00652233,-0.00117312,-0.01020831,0.00006
 020,0.00014973,-0.00094364,0.00021930,-0.00026416,0.00076663,-0.000218
 39,-0.00119722,0.00017999,-0.06880257,0.04662831,0.19072064,-0.0033914
 3,-0.00148583,0.00142030,0.00190944,-0.00219863,-0.00178895,0.00789851
 ,0.00953778,-0.00431053,-0.06835655,-0.05931479,0.04701776,-0.00043802
 ,-0.00197845,-0.00186792,-0.00153568,0.00011511,0.00060388,-0.01227764
 ,-0.00504792,0.00400105,-0.00059970,0.00036974,0.00017620,-0.00015294,
 -0.00083329,-0.00021071,0.00205160,0.00289674,0.00107863,0.00005086,-0
 .00314274,0.00270517,0.07484155,-0.00013190,0.00017711,0.00057956,0.00
 042472,0.00154198,-0.00348188,-0.00754071,-0.01486545,0.01403922,-0.05
 143807,-0.13082793,0.06941017,-0.00010601,0.00135621,0.00091063,-0.000
 43059,-0.00016772,0.00055142,-0.00548551,-0.00098452,0.00031039,0.0004
 6103,0.00002897,-0.00010676,0.00021632,0.00000497,0.00030398,-0.000258
 33,-0.00386745,-0.00192704,0.00320677,0.00555637,-0.00140712,0.0610822
 7,0.14204747,-0.00028565,0.00034133,0.00198448,-0.00331207,-0.00150755
 ,-0.00563966,0.00011536,0.00160498,0.00580935,0.04997977,0.07043370,-0
 .08864464,-0.00172797,0.00028894,-0.00097224,-0.00022312,-0.00002390,0
 .00094488,-0.00707342,-0.00239414,0.00293735,-0.00046347,-0.00008510,-
 0.00046838,-0.00012876,-0.00052170,0.00035965,0.00141775,-0.00047565,0
 .00150087,0.01052644,0.01152167,-0.00516692,-0.04882488,-0.07918258,0.
 08735525\\-0.00000107,0.00000605,-0.00001031,0.01044351,0.00221778,-0.
 00515289,0.00001641,-0.00001318,0.00000544,-0.01495033,0.00325831,-0.0
 0446132,0.00000229,0.00000233,-0.00001439,0.00000329,0.00000281,-0.000
 00530,0.00317948,-0.00386361,0.01485641,0.00000164,-0.00000406,-0.0000
 0140,0.00000428,-0.00000010,0.00000535,-0.00000486,-0.00001264,0.00000
 835,0.00130077,-0.00158845,-0.00523202,0.00000460,-0.00000525,0.000002
 06\\\@


 FROM THE ASHES OF OUR DESPAIR GROW THE FLOWERS OF TOMORROW.
 Job cpu time:       0 days  0 hours 11 minutes 55.2 seconds.
 Elapsed time:       0 days  0 hours  2 minutes 59.6 seconds.
 File lengths (MBytes):  RWF=     28 Int=      0 D2E=      0 Chk=      2 Scr=      1
 Normal termination of Gaussian 16 at Fri Jul  3 18:56:29 2020.
