 Entering Gaussian System, Link 0=/opt/gaussian/g16/legacy/g16/g16
 Initial command:
 /opt/gaussian/g16/legacy/g16/l1.exe "/scratch/1311845/Gau-11305.inp" -scrdir="/scratch/1311845/"
 Entering Link 1 = /opt/gaussian/g16/legacy/g16/l1.exe PID=     11310.
  
 Copyright (c) 1988,1990,1992,1993,1995,1998,2003,2009,2016,
            Gaussian, Inc.  All Rights Reserved.
  
 This is part of the Gaussian(R) 16 program.  It is based on
 the Gaussian(R) 09 system (copyright 2009, Gaussian, Inc.),
 the Gaussian(R) 03 system (copyright 2003, Gaussian, Inc.),
 the Gaussian(R) 98 system (copyright 1998, Gaussian, Inc.),
 the Gaussian(R) 94 system (copyright 1995, Gaussian, Inc.),
 the Gaussian 92(TM) system (copyright 1992, Gaussian, Inc.),
 the Gaussian 90(TM) system (copyright 1990, Gaussian, Inc.),
 the Gaussian 88(TM) system (copyright 1988, Gaussian, Inc.),
 the Gaussian 86(TM) system (copyright 1986, Carnegie Mellon
 University), and the Gaussian 82(TM) system (copyright 1983,
 Carnegie Mellon University). Gaussian is a federally registered
 trademark of Gaussian, Inc.
  
 This software contains proprietary and confidential information,
 including trade secrets, belonging to Gaussian, Inc.
  
 This software is provided under written license and may be
 used, copied, transmitted, or stored only in accord with that
 written license.
  
 The following legend is applicable only to US Government
 contracts under FAR:
  
                    RESTRICTED RIGHTS LEGEND
  
 Use, reproduction and disclosure by the US Government is
 subject to restrictions as set forth in subparagraphs (a)
 and (c) of the Commercial Computer Software - Restricted
 Rights clause in FAR 52.227-19.
  
 Gaussian, Inc.
 340 Quinnipiac St., Bldg. 40, Wallingford CT 06492
  
  
 ---------------------------------------------------------------
 Warning -- This program may not be used in any manner that
 competes with the business of Gaussian, Inc. or will provide
 assistance to any competitor of Gaussian, Inc.  The licensee
 of this program is prohibited from giving any competitor of
 Gaussian, Inc. access to this program.  By using this program,
 the user acknowledges that Gaussian, Inc. is engaged in the
 business of creating and licensing software in the field of
 computational chemistry and represents and warrants to the
 licensee that it is not a competitor of Gaussian, Inc. and that
 it will not use this program in any manner prohibited above.
 ---------------------------------------------------------------
  

 Cite this work as:
 Gaussian 16, Revision A.03,
 M. J. Frisch, G. W. Trucks, H. B. Schlegel, G. E. Scuseria, 
 M. A. Robb, J. R. Cheeseman, G. Scalmani, V. Barone, 
 G. A. Petersson, H. Nakatsuji, X. Li, M. Caricato, A. V. Marenich, 
 J. Bloino, B. G. Janesko, R. Gomperts, B. Mennucci, H. P. Hratchian, 
 J. V. Ortiz, A. F. Izmaylov, J. L. Sonnenberg, D. Williams-Young, 
 F. Ding, F. Lipparini, F. Egidi, J. Goings, B. Peng, A. Petrone, 
 T. Henderson, D. Ranasinghe, V. G. Zakrzewski, J. Gao, N. Rega, 
 G. Zheng, W. Liang, M. Hada, M. Ehara, K. Toyota, R. Fukuda, 
 J. Hasegawa, M. Ishida, T. Nakajima, Y. Honda, O. Kitao, H. Nakai, 
 T. Vreven, K. Throssell, J. A. Montgomery, Jr., J. E. Peralta, 
 F. Ogliaro, M. J. Bearpark, J. J. Heyd, E. N. Brothers, K. N. Kudin, 
 V. N. Staroverov, T. A. Keith, R. Kobayashi, J. Normand, 
 K. Raghavachari, A. P. Rendell, J. C. Burant, S. S. Iyengar, 
 J. Tomasi, M. Cossi, J. M. Millam, M. Klene, C. Adamo, R. Cammi, 
 J. W. Ochterski, R. L. Martin, K. Morokuma, O. Farkas, 
 J. B. Foresman, and D. J. Fox, Gaussian, Inc., Wallingford CT, 2016.
 
 ******************************************
 Gaussian 16:  EM64L-G16RevA.03 25-Dec-2016
                 3-Jul-2020 
 ******************************************
 %mem=16GB
 %nprocshared=4
 Will use up to    4 processors via shared memory.
 -------------------------------------------------------------------
 #opt ub3lyp/6-31G(d,p) geom(modredundant, gic) scf=(maxcycles=1024)
 -------------------------------------------------------------------
 1/18=20,19=15,26=3,38=1,145=903/1,3;
 2/9=110,12=2,17=6,18=5,40=1/2;
 3/5=1,6=6,7=101,11=2,25=1,30=1,71=1,74=-5,116=2/1,2,3;
 4//1;
 5/5=2,7=1024,38=5/2;
 6/7=2,8=2,9=2,10=2,28=1/1;
 7//1,2,3,16;
 1/18=20,19=15,26=3,145=903/3(2);
 2/9=110/2;
 99//99;
 2/9=110/2;
 3/5=1,6=6,7=101,11=2,25=1,30=1,71=1,74=-5,116=2/1,2,3;
 4/5=5,16=3,69=1/1;
 5/5=2,7=1024,38=5/2;
 7//1,2,3,16;
 1/18=20,19=15,26=3,145=903/3(-5);
 2/9=110/2;
 6/7=2,8=2,9=2,10=2,19=2,28=1/1;
 99/9=1/99;
 ---------------
 something title
 ---------------
 Symbolic Z-matrix:
 Charge =  0 Multiplicity = 1
 N                     2.35664   0.54068   0.36449 
 B                     2.21548  -0.76697   0.75998 
 N                    -0.28971  -1.29303  -1.1084 
 B                     0.23803  -1.64275   0.20543 
 H                     0.30585  -1.09906  -1.85514 
 H                     2.84647  -1.20577   1.64188 
 H                     1.69136  -1.56323   0.03519 
 H                     1.73733   1.0058   -0.29983 
 H                     3.11717   1.11654   0.69559 
 H                    -1.03317  -0.6466   -1.14772 
 H                     0.07936  -0.86746   1.10571 
 H                     0.16734  -2.75589   0.55621 
 
 Add virtual bond connecting atoms H7         and B4         Dist= 2.77D+00.
 Initializing the GIC definitions file.
 Number of initial coordinates =    42
 Number of input entries/lines =     4
 Number of additional coordinates =     1
 Number of removed coordinates =     0
 Number of frozen coordinates =     4
 Number of final active and frozen coordinates =    43

 GradGradGradGradGradGradGradGradGradGradGradGradGradGradGradGradGradGrad
 Berny optimization.
 Initialization pass.
                           ----------------------------
                           !    Initial Parameters    !
                           ! (Angstroms and Degrees)  !
 --------------------------                            --------------------------
 ! Name  Definition              Value          Derivative Info.                !
 --------------------------------------------------------------------------------
 ! R1    R(1,2)                  1.3734         estimate D2E/DX2                !
 ! R2    R(1,8)                  1.0204         estimate D2E/DX2                !
 ! R3    R(1,9)                  1.0098         estimate D2E/DX2                !
 ! R4    R(2,6)                  1.1698         estimate D2E/DX2                !
 ! bond0 R(2,7)                  1.1975         Frozen                          !
 ! R6    R(3,4)                  1.4584         estimate D2E/DX2                !
 ! R7    R(3,5)                  0.9747         estimate D2E/DX2                !
 ! R8    R(3,10)                 0.986          estimate D2E/DX2                !
 ! bond2 R(4,7)                  1.4654         Frozen                          !
 ! bond3 R(4,11)                 1.1987         Frozen                          !
 ! R11   R(4,12)                 1.1692         estimate D2E/DX2                !
 ! A1    A(2,1,8)              123.9931         estimate D2E/DX2                !
 ! A2    A(2,1,9)              121.7332         estimate D2E/DX2                !
 ! A3    A(8,1,9)              114.2451         estimate D2E/DX2                !
 ! A4    A(1,2,6)              121.2514         estimate D2E/DX2                !
 ! A5    A(1,2,7)              120.2503         estimate D2E/DX2                !
 ! A6    A(6,2,7)              116.292          estimate D2E/DX2                !
 ! A7    A(4,3,5)              121.1186         estimate D2E/DX2                !
 ! A8    A(4,3,10)             117.7752         estimate D2E/DX2                !
 ! A9    A(5,3,10)             107.4411         estimate D2E/DX2                !
 ! A10   A(3,4,7)              103.9582         estimate D2E/DX2                !
 ! A11   A(3,4,11)             118.2694         estimate D2E/DX2                !
 ! A12   A(3,4,12)             118.4689         estimate D2E/DX2                !
 ! A13   A(7,4,11)             100.5698         estimate D2E/DX2                !
 ! A14   A(7,4,12)              98.4225         estimate D2E/DX2                !
 ! A15   A(11,4,12)            112.4844         estimate D2E/DX2                !
 ! A16   A(2,7,4)              113.5677         estimate D2E/DX2                !
 ! D1    D(8,1,2,6)           -170.5191         estimate D2E/DX2                !
 ! D2    D(8,1,2,7)             26.9826         estimate D2E/DX2                !
 ! D3    D(9,1,2,6)             11.5392         estimate D2E/DX2                !
 ! D4    D(9,1,2,7)           -150.9591         estimate D2E/DX2                !
 ! D5    D(1,2,7,4)            -88.9595         estimate D2E/DX2                !
 ! D6    D(6,2,7,4)            107.7048         estimate D2E/DX2                !
 ! D7    D(5,3,4,7)              1.651          estimate D2E/DX2                !
 ! D8    D(5,3,4,11)           112.0327         estimate D2E/DX2                !
 ! D9    D(5,3,4,12)          -106.1955         estimate D2E/DX2                !
 ! D10   D(10,3,4,7)          -133.8816         estimate D2E/DX2                !
 ! D11   D(10,3,4,11)          -23.4999         estimate D2E/DX2                !
 ! D12   D(10,3,4,12)          118.2719         estimate D2E/DX2                !
 ! D13   D(3,4,7,2)            120.2207         estimate D2E/DX2                !
 ! D14   D(11,4,7,2)            -2.656          estimate D2E/DX2                !
 ! D15   D(12,4,7,2)          -117.5477         estimate D2E/DX2                !
 ! bond1 R(2,11)                 2.1662         Frozen                          !
 --------------------------------------------------------------------------------
 Trust Radius=3.00D-01 FncErr=1.00D-07 GrdErr=1.00D-06 EigMax=2.50D+02 EigMin=1.00D-04
 Number of steps in this run=     53 maximum allowed number of steps=    100.
 GradGradGradGradGradGradGradGradGradGradGradGradGradGradGradGradGradGrad

                          Input orientation:                          
 ---------------------------------------------------------------------
 Center     Atomic      Atomic             Coordinates (Angstroms)
 Number     Number       Type             X           Y           Z
 ---------------------------------------------------------------------
      1          7           0        2.356638    0.540675    0.364488
      2          5           0        2.215478   -0.766970    0.759980
      3          7           0       -0.289713   -1.293028   -1.108395
      4          5           0        0.238030   -1.642749    0.205426
      5          1           0        0.305854   -1.099065   -1.855140
      6          1           0        2.846471   -1.205773    1.641884
      7          1           0        1.691357   -1.563229    0.035192
      8          1           0        1.737331    1.005798   -0.299832
      9          1           0        3.117167    1.116539    0.695592
     10          1           0       -1.033174   -0.646601   -1.147720
     11          1           0        0.079360   -0.867458    1.105711
     12          1           0        0.167339   -2.755888    0.556211
 ---------------------------------------------------------------------
                    Distance matrix (angstroms):
                    1          2          3          4          5
     1  N    0.000000
     2  B    1.373417   0.000000
     3  N    3.540484   3.169155   0.000000
     4  B    3.046497   2.232671   1.458404   0.000000
     5  H    3.438199   3.255120   0.974654   2.132164   0.000000
     6  H    2.218503   1.169810   4.172205   3.009705   4.323806
     7  H    2.231019   1.197518   2.303354   1.465422   2.389230
     8  H    1.020393   2.120031   3.169745   3.085124   2.983045
     9  H    1.009779   2.089209   4.546121   4.017880   4.395295
    10  H    3.897079   3.769290   0.985976   2.106959   1.580558
    11  H    2.778173   2.166247   2.284642   1.198651   2.978520
    12  H    3.961959   2.862200   2.262691   1.169242   2.928970
                    6          7          8          9         10
     6  H    0.000000
     7  H    2.010851   0.000000
     8  H    3.145075   2.591188   0.000000
     9  H    2.522276   3.106480   1.705016   0.000000
    10  H    4.811051   3.108465   3.335421   4.871529   0.000000
    11  H    2.838810   2.056366   2.869409   3.651399   2.522788
    12  H    3.280136   2.004128   4.165089   4.869970   2.965418
                   11         12
    11  H    0.000000
    12  H    1.968720   0.000000
 Stoichiometry    B2H8N2
 Framework group  C1[X(B2H8N2)]
 Deg. of freedom    30
 Full point group                 C1      NOp   1
 Largest Abelian subgroup         C1      NOp   1
 Largest concise Abelian subgroup C1      NOp   1
                         Standard orientation:                         
 ---------------------------------------------------------------------
 Center     Atomic      Atomic             Coordinates (Angstroms)
 Number     Number       Type             X           Y           Z
 ---------------------------------------------------------------------
      1          7           0       -1.722071   -0.556534    0.078545
      2          5           0       -1.141782    0.654956   -0.207522
      3          7           0        1.811527   -0.492166   -0.132565
      4          5           0        1.049391    0.700667    0.218492
      5          1           0        1.542028   -1.061271   -0.876500
      6          1           0       -1.773894    1.638845   -0.236708
      7          1           0       -0.066091    0.699823   -0.731855
      8          1           0       -1.196755   -1.413973    0.251873
      9          1           0       -2.724869   -0.672344    0.103775
     10          1           0        2.103822   -1.082975    0.600686
     11          1           0        0.452616    0.707533    1.258000
     12          1           0        1.498900    1.747150   -0.045973
 ---------------------------------------------------------------------
 Rotational constants (GHZ):          14.7991050           3.6067354           3.0665672
 Standard basis: 6-31G(d,p) (6D, 7F)
 There are   100 symmetry adapted cartesian basis functions of A   symmetry.
 There are   100 symmetry adapted basis functions of A   symmetry.
   100 basis functions,   168 primitive gaussians,   100 cartesian basis functions
    16 alpha electrons       16 beta electrons
       nuclear repulsion energy       108.6921042335 Hartrees.
 NAtoms=   12 NActive=   12 NUniq=   12 SFac= 1.00D+00 NAtFMM=   60 NAOKFM=F Big=F
 Integral buffers will be    131072 words long.
 Raffenetti 2 integral format.
 Two-electron integral symmetry is turned on.
 One-electron integrals computed using PRISM.
 NBasis=   100 RedAO= T EigKep=  6.09D-03  NBF=   100
 NBsUse=   100 1.00D-06 EigRej= -1.00D+00 NBFU=   100
 ExpMin= 1.27D-01 ExpMax= 4.17D+03 ExpMxC= 6.27D+02 IAcc=3 IRadAn=         5 AccDes= 0.00D+00
 Harris functional with IExCor=  402 and IRadAn=       5 diagonalized for initial guess.
 HarFok:  IExCor=  402 AccDes= 0.00D+00 IRadAn=         5 IDoV= 1 UseB2=F ITyADJ=14
 ICtDFT=  3500011 ScaDFX=  1.000000  1.000000  1.000000  1.000000
 FoFCou: FMM=F IPFlag=           0 FMFlag=      100000 FMFlg1=           0
         NFxFlg=           0 DoJE=T BraDBF=F KetDBF=T FulRan=T
         wScrn=  0.000000 ICntrl=       500 IOpCl=  0 I1Cent=   200000004 NGrid=           0
         NMat0=    1 NMatS0=      1 NMatT0=    0 NMatD0=    1 NMtDS0=    0 NMtDT0=    0
 Petite list used in FoFCou.
 Initial guess <Sx>= 0.0000 <Sy>= 0.0000 <Sz>= 0.0000 <S**2>= 0.0000 S= 0.0000
 Keep R1 and R2 ints in memory in canonical form, NReq=29209870.
 Requested convergence on RMS density matrix=1.00D-08 within1024 cycles.
 Requested convergence on MAX density matrix=1.00D-06.
 Requested convergence on             energy=1.00D-06.
 No special actions if energy rises.
 Integral accuracy reduced to 1.0D-05 until final iterations.
 Initial convergence to 1.0D-05 achieved.  Increase integral accuracy.
 SCF Done:  E(UB3LYP) =  -164.045116224     A.U. after   13 cycles
            NFock= 13  Conv=0.30D-08     -V/T= 2.0082
 <Sx>= 0.0000 <Sy>= 0.0000 <Sz>= 0.0000 <S**2>=-0.0000 S=-0.0000
 <L.S>= 0.000000000000E+00
 Annihilation of the first spin contaminant:
 S**2 before annihilation    -0.0000,   after    -0.0000

 **********************************************************************

            Population analysis using the SCF density.

 **********************************************************************

 Orbital symmetries:
 Alpha Orbitals:
       Occupied  (A) (A) (A) (A) (A) (A) (A) (A) (A) (A) (A) (A)
                 (A) (A) (A) (A)
       Virtual   (A) (A) (A) (A) (A) (A) (A) (A) (A) (A) (A) (A)
                 (A) (A) (A) (A) (A) (A) (A) (A) (A) (A) (A) (A)
                 (A) (A) (A) (A) (A) (A) (A) (A) (A) (A) (A) (A)
                 (A) (A) (A) (A) (A) (A) (A) (A) (A) (A) (A) (A)
                 (A) (A) (A) (A) (A) (A) (A) (A) (A) (A) (A) (A)
                 (A) (A) (A) (A) (A) (A) (A) (A) (A) (A) (A) (A)
                 (A) (A) (A) (A) (A) (A) (A) (A) (A) (A) (A) (A)
 Beta  Orbitals:
       Occupied  (A) (A) (A) (A) (A) (A) (A) (A) (A) (A) (A) (A)
                 (A) (A) (A) (A)
       Virtual   (A) (A) (A) (A) (A) (A) (A) (A) (A) (A) (A) (A)
                 (A) (A) (A) (A) (A) (A) (A) (A) (A) (A) (A) (A)
                 (A) (A) (A) (A) (A) (A) (A) (A) (A) (A) (A) (A)
                 (A) (A) (A) (A) (A) (A) (A) (A) (A) (A) (A) (A)
                 (A) (A) (A) (A) (A) (A) (A) (A) (A) (A) (A) (A)
                 (A) (A) (A) (A) (A) (A) (A) (A) (A) (A) (A) (A)
                 (A) (A) (A) (A) (A) (A) (A) (A) (A) (A) (A) (A)
 The electronic state is 1-A.
 Alpha  occ. eigenvalues --  -14.35329 -14.27278  -6.77296  -6.72592  -0.88630
 Alpha  occ. eigenvalues --   -0.82947  -0.58076  -0.53088  -0.49854  -0.46706
 Alpha  occ. eigenvalues --   -0.42556  -0.37046  -0.35791  -0.33133  -0.29346
 Alpha  occ. eigenvalues --   -0.20509
 Alpha virt. eigenvalues --   -0.01194   0.05817   0.07544   0.11126   0.13254
 Alpha virt. eigenvalues --    0.17494   0.20233   0.21104   0.22565   0.23845
 Alpha virt. eigenvalues --    0.29234   0.30678   0.42085   0.44350   0.47289
 Alpha virt. eigenvalues --    0.47575   0.55990   0.56771   0.58570   0.69414
 Alpha virt. eigenvalues --    0.73394   0.75555   0.77873   0.80110   0.81661
 Alpha virt. eigenvalues --    0.85822   0.90223   0.90667   0.91687   0.93570
 Alpha virt. eigenvalues --    0.95478   0.95912   0.99479   1.11067   1.16310
 Alpha virt. eigenvalues --    1.18874   1.23418   1.33149   1.39218   1.44609
 Alpha virt. eigenvalues --    1.48005   1.60768   1.62046   1.67481   1.70353
 Alpha virt. eigenvalues --    1.71605   1.72872   1.82909   1.88819   2.03244
 Alpha virt. eigenvalues --    2.05630   2.13014   2.16669   2.21839   2.27434
 Alpha virt. eigenvalues --    2.31038   2.33868   2.38977   2.42298   2.45810
 Alpha virt. eigenvalues --    2.47346   2.51218   2.53563   2.59055   2.62967
 Alpha virt. eigenvalues --    2.65078   2.67809   2.74682   2.79103   2.85345
 Alpha virt. eigenvalues --    2.92713   3.06815   3.11031   3.15446   3.24376
 Alpha virt. eigenvalues --    3.26667   3.29662   3.39873   3.56515   3.57183
 Alpha virt. eigenvalues --    3.62983   3.69780   4.13355   4.22446
  Beta  occ. eigenvalues --  -14.35329 -14.27278  -6.77296  -6.72592  -0.88630
  Beta  occ. eigenvalues --   -0.82947  -0.58076  -0.53088  -0.49854  -0.46706
  Beta  occ. eigenvalues --   -0.42556  -0.37046  -0.35791  -0.33133  -0.29346
  Beta  occ. eigenvalues --   -0.20509
  Beta virt. eigenvalues --   -0.01194   0.05817   0.07544   0.11126   0.13254
  Beta virt. eigenvalues --    0.17494   0.20233   0.21104   0.22565   0.23845
  Beta virt. eigenvalues --    0.29234   0.30678   0.42085   0.44350   0.47289
  Beta virt. eigenvalues --    0.47575   0.55990   0.56771   0.58570   0.69414
  Beta virt. eigenvalues --    0.73394   0.75555   0.77873   0.80110   0.81661
  Beta virt. eigenvalues --    0.85822   0.90223   0.90667   0.91687   0.93570
  Beta virt. eigenvalues --    0.95478   0.95912   0.99479   1.11067   1.16310
  Beta virt. eigenvalues --    1.18874   1.23418   1.33149   1.39218   1.44609
  Beta virt. eigenvalues --    1.48005   1.60768   1.62046   1.67481   1.70353
  Beta virt. eigenvalues --    1.71605   1.72872   1.82909   1.88819   2.03244
  Beta virt. eigenvalues --    2.05630   2.13014   2.16669   2.21839   2.27434
  Beta virt. eigenvalues --    2.31038   2.33868   2.38977   2.42298   2.45810
  Beta virt. eigenvalues --    2.47346   2.51218   2.53563   2.59055   2.62967
  Beta virt. eigenvalues --    2.65078   2.67809   2.74682   2.79103   2.85345
  Beta virt. eigenvalues --    2.92713   3.06815   3.11031   3.15446   3.24376
  Beta virt. eigenvalues --    3.26667   3.29662   3.39873   3.56515   3.57183
  Beta virt. eigenvalues --    3.62983   3.69780   4.13355   4.22446
          Condensed to atoms (all electrons):
               1          2          3          4          5          6
     1  N    6.400522   0.500468  -0.001234  -0.008789   0.000380  -0.027333
     2  B    0.500468   3.590563  -0.022336   0.046090   0.000249   0.402188
     3  N   -0.001234  -0.022336   6.580259   0.447505   0.363002   0.000656
     4  B   -0.008789   0.046090   0.447505   3.509250  -0.041355  -0.002159
     5  H    0.000380   0.000249   0.363002  -0.041355   0.484696   0.000051
     6  H   -0.027333   0.402188   0.000656  -0.002159   0.000051   0.697383
     7  H   -0.020167   0.291588  -0.009090   0.118069  -0.006482  -0.024762
     8  H    0.347403  -0.042145   0.006754   0.001159   0.000904   0.004055
     9  H    0.358511  -0.031034  -0.000020   0.000484  -0.000014  -0.003384
    10  H    0.000046  -0.000535   0.355746  -0.034726  -0.033443  -0.000014
    11  H   -0.011282   0.064560  -0.037022   0.366388   0.003047  -0.000443
    12  H    0.000947  -0.031741  -0.042335   0.388473   0.001973   0.000633
               7          8          9         10         11         12
     1  N   -0.020167   0.347403   0.358511   0.000046  -0.011282   0.000947
     2  B    0.291588  -0.042145  -0.031034  -0.000535   0.064560  -0.031741
     3  N   -0.009090   0.006754  -0.000020   0.355746  -0.037022  -0.042335
     4  B    0.118069   0.001159   0.000484  -0.034726   0.366388   0.388473
     5  H   -0.006482   0.000904  -0.000014  -0.033443   0.003047   0.001973
     6  H   -0.024762   0.004055  -0.003384  -0.000014  -0.000443   0.000633
     7  H    0.728101  -0.003971   0.002472   0.001690  -0.052490   0.001370
     8  H   -0.003971   0.447092  -0.028165   0.000333  -0.001664   0.000253
     9  H    0.002472  -0.028165   0.429013   0.000003   0.000180  -0.000023
    10  H    0.001690   0.000333   0.000003   0.483413  -0.006418   0.004388
    11  H   -0.052490  -0.001664   0.000180  -0.006418   0.812186  -0.049803
    12  H    0.001370   0.000253  -0.000023   0.004388  -0.049803   0.822248
          Atomic-Atomic Spin Densities.
               1          2          3          4          5          6
     1  N    0.000000  -0.000000  -0.000000  -0.000000   0.000000  -0.000000
     2  B   -0.000000   0.000000   0.000000   0.000000   0.000000   0.000000
     3  N   -0.000000   0.000000  -0.000000  -0.000000   0.000000  -0.000000
     4  B   -0.000000   0.000000  -0.000000  -0.000000   0.000000   0.000000
     5  H    0.000000   0.000000   0.000000   0.000000   0.000000   0.000000
     6  H   -0.000000   0.000000  -0.000000   0.000000   0.000000  -0.000000
     7  H   -0.000000  -0.000000  -0.000000   0.000000  -0.000000  -0.000000
     8  H   -0.000000  -0.000000   0.000000   0.000000   0.000000  -0.000000
     9  H    0.000000  -0.000000   0.000000  -0.000000  -0.000000   0.000000
    10  H    0.000000   0.000000   0.000000   0.000000   0.000000   0.000000
    11  H   -0.000000   0.000000   0.000000   0.000000  -0.000000  -0.000000
    12  H    0.000000  -0.000000  -0.000000   0.000000  -0.000000  -0.000000
               7          8          9         10         11         12
     1  N   -0.000000  -0.000000   0.000000   0.000000  -0.000000   0.000000
     2  B   -0.000000  -0.000000  -0.000000   0.000000   0.000000  -0.000000
     3  N   -0.000000   0.000000   0.000000   0.000000   0.000000  -0.000000
     4  B    0.000000   0.000000  -0.000000   0.000000   0.000000   0.000000
     5  H   -0.000000   0.000000  -0.000000   0.000000  -0.000000  -0.000000
     6  H   -0.000000  -0.000000   0.000000   0.000000  -0.000000  -0.000000
     7  H   -0.000000   0.000000   0.000000  -0.000000  -0.000000  -0.000000
     8  H    0.000000   0.000000   0.000000  -0.000000  -0.000000   0.000000
     9  H    0.000000   0.000000  -0.000000  -0.000000   0.000000   0.000000
    10  H   -0.000000  -0.000000  -0.000000  -0.000000  -0.000000  -0.000000
    11  H   -0.000000  -0.000000   0.000000  -0.000000   0.000000  -0.000000
    12  H   -0.000000   0.000000   0.000000  -0.000000  -0.000000  -0.000000
 Mulliken charges and spin densities:
               1          2
     1  N   -0.539471   0.000000
     2  B    0.232085   0.000000
     3  N   -0.641886  -0.000000
     4  B    0.209611  -0.000000
     5  H    0.226992   0.000000
     6  H   -0.046870  -0.000000
     7  H   -0.026327  -0.000000
     8  H    0.267993   0.000000
     9  H    0.271976  -0.000000
    10  H    0.229517   0.000000
    11  H   -0.087238   0.000000
    12  H   -0.096382  -0.000000
 Sum of Mulliken charges =  -0.00000   0.00000
 Mulliken charges and spin densities with hydrogens summed into heavy atoms:
               1          2
     1  N    0.000498   0.000000
     2  B    0.158888   0.000000
     3  N   -0.185377  -0.000000
     4  B    0.025991  -0.000000
 Electronic spatial extent (au):  <R**2>=            420.1902
 Charge=              0.0000 electrons
 Dipole moment (field-independent basis, Debye):
    X=             -3.0648    Y=             -3.1142    Z=             -0.1570  Tot=              4.3722
 Quadrupole moment (field-independent basis, Debye-Ang):
   XX=            -26.7497   YY=            -25.9918   ZZ=            -27.4949
   XY=             -0.5944   XZ=              0.9614   YZ=             -0.7742
 Traceless Quadrupole moment (field-independent basis, Debye-Ang):
   XX=             -0.0042   YY=              0.7536   ZZ=             -0.7495
   XY=             -0.5944   XZ=              0.9614   YZ=             -0.7742
 Octapole moment (field-independent basis, Debye-Ang**2):
  XXX=            -29.8168  YYY=            -21.4495  ZZZ=             -2.6546  XYY=             -1.9070
  XXY=            -14.3961  XXZ=              5.3425  XZZ=              2.1185  YZZ=             -5.1646
  YYZ=              0.3023  XYZ=              0.4158
 Hexadecapole moment (field-independent basis, Debye-Ang**3):
 XXXX=           -368.3354 YYYY=           -131.2824 ZZZZ=            -48.8342 XXXY=              7.6661
 XXXZ=              8.0008 YYYX=             -3.3767 YYYZ=             -1.5284 ZZZX=             -2.2469
 ZZZY=             -1.0891 XXYY=            -80.9301 XXZZ=            -73.3112 YYZZ=            -29.3378
 XXYZ=             -3.0514 YYXZ=             -2.3345 ZZXY=             -3.5598
 N-N= 1.086921042335D+02 E-N=-5.977934872869D+02  KE= 1.627054065787D+02
                          Isotropic Fermi Contact Couplings
        Atom                 a.u.       MegaHertz       Gauss      10(-4) cm-1
     1  N(14)              0.00000       0.00000       0.00000       0.00000
     2  B(11)              0.00000       0.00000       0.00000       0.00000
     3  N(14)             -0.00000      -0.00000      -0.00000      -0.00000
     4  B(11)              0.00000       0.00000       0.00000       0.00000
     5  H(1)              -0.00000      -0.00000      -0.00000      -0.00000
     6  H(1)              -0.00000      -0.00000      -0.00000      -0.00000
     7  H(1)              -0.00000      -0.00000      -0.00000      -0.00000
     8  H(1)               0.00000       0.00000       0.00000       0.00000
     9  H(1)               0.00000       0.00000       0.00000       0.00000
    10  H(1)              -0.00000      -0.00000      -0.00000      -0.00000
    11  H(1)              -0.00000      -0.00000      -0.00000      -0.00000
    12  H(1)               0.00000       0.00000       0.00000       0.00000
 --------------------------------------------------------
       Center         ----  Spin Dipole Couplings  ----
                      3XX-RR        3YY-RR        3ZZ-RR
 --------------------------------------------------------
     1   Atom        0.000000      0.000000      0.000000
     2   Atom        0.000000      0.000000      0.000000
     3   Atom        0.000000      0.000000      0.000000
     4   Atom        0.000000      0.000000      0.000000
     5   Atom        0.000000      0.000000      0.000000
     6   Atom        0.000000      0.000000      0.000000
     7   Atom        0.000000      0.000000      0.000000
     8   Atom        0.000000      0.000000      0.000000
     9   Atom        0.000000      0.000000      0.000000
    10   Atom        0.000000      0.000000      0.000000
    11   Atom        0.000000      0.000000      0.000000
    12   Atom        0.000000      0.000000      0.000000
 --------------------------------------------------------
                        XY            XZ            YZ
 --------------------------------------------------------
     1   Atom        0.000000      0.000000      0.000000
     2   Atom        0.000000      0.000000      0.000000
     3   Atom        0.000000      0.000000      0.000000
     4   Atom        0.000000      0.000000      0.000000
     5   Atom        0.000000      0.000000      0.000000
     6   Atom        0.000000      0.000000      0.000000
     7   Atom        0.000000      0.000000      0.000000
     8   Atom        0.000000      0.000000      0.000000
     9   Atom        0.000000      0.000000      0.000000
    10   Atom        0.000000      0.000000      0.000000
    11   Atom        0.000000      0.000000      0.000000
    12   Atom        0.000000      0.000000      0.000000
 --------------------------------------------------------


 ---------------------------------------------------------------------------------
              Anisotropic Spin Dipole Couplings in Principal Axis System
 ---------------------------------------------------------------------------------

       Atom             a.u.   MegaHertz   Gauss  10(-4) cm-1        Axes

              Baa     0.0000     0.000     0.000     0.000  1.0000  0.0000  0.0000
     1 N(14)  Bbb     0.0000     0.000     0.000     0.000 -0.0000  1.0000  0.0000
              Bcc     0.0000     0.000     0.000     0.000  0.0000  0.0000  1.0000
 
              Baa     0.0000     0.000     0.000     0.000  1.0000  0.0000  0.0000
     2 B(11)  Bbb     0.0000     0.000     0.000     0.000 -0.0000  1.0000  0.0000
              Bcc     0.0000     0.000     0.000     0.000  0.0000  0.0000  1.0000
 
              Baa     0.0000     0.000     0.000     0.000  1.0000  0.0000  0.0000
     3 N(14)  Bbb     0.0000     0.000     0.000     0.000 -0.0000  1.0000  0.0000
              Bcc     0.0000     0.000     0.000     0.000  0.0000  0.0000  1.0000
 
              Baa     0.0000     0.000     0.000     0.000  1.0000  0.0000  0.0000
     4 B(11)  Bbb     0.0000     0.000     0.000     0.000 -0.0000  1.0000  0.0000
              Bcc     0.0000     0.000     0.000     0.000  0.0000  0.0000  1.0000
 
              Baa     0.0000     0.000     0.000     0.000  1.0000  0.0000  0.0000
     5 H(1)   Bbb     0.0000     0.000     0.000     0.000 -0.0000  1.0000  0.0000
              Bcc     0.0000     0.000     0.000     0.000  0.0000  0.0000  1.0000
 
              Baa     0.0000     0.000     0.000     0.000  1.0000  0.0000  0.0000
     6 H(1)   Bbb     0.0000     0.000     0.000     0.000 -0.0000  1.0000  0.0000
              Bcc     0.0000     0.000     0.000     0.000  0.0000  0.0000  1.0000
 
              Baa     0.0000     0.000     0.000     0.000  1.0000  0.0000  0.0000
     7 H(1)   Bbb     0.0000     0.000     0.000     0.000 -0.0000  1.0000  0.0000
              Bcc     0.0000     0.000     0.000     0.000  0.0000  0.0000  1.0000
 
              Baa     0.0000     0.000     0.000     0.000  1.0000  0.0000  0.0000
     8 H(1)   Bbb     0.0000     0.000     0.000     0.000 -0.0000  1.0000  0.0000
              Bcc     0.0000     0.000     0.000     0.000  0.0000  0.0000  1.0000
 
              Baa     0.0000     0.000     0.000     0.000  1.0000  0.0000  0.0000
     9 H(1)   Bbb     0.0000     0.000     0.000     0.000 -0.0000  1.0000  0.0000
              Bcc     0.0000     0.000     0.000     0.000  0.0000  0.0000  1.0000
 
              Baa     0.0000     0.000     0.000     0.000  1.0000  0.0000  0.0000
    10 H(1)   Bbb     0.0000     0.000     0.000     0.000 -0.0000  1.0000  0.0000
              Bcc     0.0000     0.000     0.000     0.000  0.0000  0.0000  1.0000
 
              Baa     0.0000     0.000     0.000     0.000  1.0000  0.0000  0.0000
    11 H(1)   Bbb     0.0000     0.000     0.000     0.000 -0.0000  1.0000  0.0000
              Bcc     0.0000     0.000     0.000     0.000  0.0000  0.0000  1.0000
 
              Baa     0.0000     0.000     0.000     0.000  1.0000  0.0000  0.0000
    12 H(1)   Bbb     0.0000     0.000     0.000     0.000 -0.0000  1.0000  0.0000
              Bcc     0.0000     0.000     0.000     0.000  0.0000  0.0000  1.0000
 

 ---------------------------------------------------------------------------------

 Calling FoFJK, ICntrl=      2127 FMM=F ISym2X=0 I1Cent= 0 IOpClX= 1 NMat=1 NMatS=1 NMatT=0.
 ***** Axes restored to original set *****
 -------------------------------------------------------------------
 Center     Atomic                   Forces (Hartrees/Bohr)
 Number     Number              X              Y              Z
 -------------------------------------------------------------------
      1        7          -0.001847575    0.015325235   -0.011995778
      2        5          -0.000032145    0.004731700    0.006310195
      3        7          -0.008547357   -0.010879111    0.009633252
      4        5          -0.002978596    0.006737701    0.002731359
      5        1           0.022791310   -0.001071739   -0.028811270
      6        1           0.004875943   -0.006087152    0.006367022
      7        1          -0.008187754   -0.013189984   -0.009227282
      8        1           0.007240079   -0.006243534    0.002352971
      9        1          -0.004657733    0.001873406    0.003694495
     10        1          -0.016370756    0.019892900    0.004454644
     11        1          -0.002533460    0.005709590    0.009339483
     12        1           0.010248045   -0.016799011    0.005150910
 -------------------------------------------------------------------
 Cartesian Forces:  Max     0.028811270 RMS     0.010445493

 GradGradGradGradGradGradGradGradGradGradGradGradGradGradGradGradGradGrad
 Berny optimization.
 FormGI is forming the generalized inverse of G from B-inverse, IUseBI=4.
 Internal  Forces:  Max     0.035787576 RMS     0.009239409
 Search for a local minimum.
 Step number   1 out of a maximum of   53
 All quantities printed in internal units (Hartrees-Bohrs-Radians)
 Mixed Optimization -- RFO/linear search
 Second derivative matrix not updated -- first step.
 ITU=  0
     Eigenvalues ---    0.00230   0.00232   0.01449   0.02049   0.02573
     Eigenvalues ---    0.02576   0.02705   0.05845   0.08830   0.12021
     Eigenvalues ---    0.14268   0.15724   0.16000   0.16000   0.16000
     Eigenvalues ---    0.16000   0.16000   0.17921   0.27007   0.27054
     Eigenvalues ---    0.37165   0.44275   0.46010   0.50241   0.50325
     Eigenvalues ---    0.524371000.000001000.000001000.000001000.00000
     Eigenvalues --- 1000.000001000.000001000.000001000.000001000.00000
     Eigenvalues --- 1000.000001000.000001000.000001000.000001000.00000
     Eigenvalues --- 1000.000001000.000001000.00000
 RFO step:  Lambda=-1.54397569D-02 EMin= 2.30000000D-03
 Linear search not attempted -- first point.
 Iteration  1 RMS(Cart)=  0.19292967 RMS(Int)=  0.01657670
 Iteration  2 RMS(Cart)=  0.02565032 RMS(Int)=  0.00100603
 Iteration  3 RMS(Cart)=  0.00045605 RMS(Int)=  0.00095370
 Iteration  4 RMS(Cart)=  0.00000019 RMS(Int)=  0.00095370
 Iteration  1 RMS(Cart)=  0.00055528 RMS(Int)=  0.00020820
 Iteration  2 RMS(Cart)=  0.00013352 RMS(Int)=  0.00022640
 Iteration  3 RMS(Cart)=  0.00003209 RMS(Int)=  0.00023563
 Iteration  4 RMS(Cart)=  0.00000771 RMS(Int)=  0.00023808
 Iteration  5 RMS(Cart)=  0.00000185 RMS(Int)=  0.00023868
 Iteration  6 RMS(Cart)=  0.00000045 RMS(Int)=  0.00023883
 Variable       Old X    -DE/DX   Delta X   Delta X   Delta X     New X
                                 (Linear)    (Quad)   (Total)
    R1        2.59538   0.01222   0.00000   0.02356   0.02356   2.61894
    R2        1.92826  -0.00877   0.00000  -0.01915  -0.01915   1.90912
    R3        1.90821  -0.00123   0.00000  -0.00258  -0.00258   1.90562
    R4        2.21062   0.00971   0.00000   0.03402   0.03402   2.24464
  bond0       2.26298   0.01379   0.00000   0.00000  -0.00000   2.26298
    R6        2.75598   0.01594   0.00000   0.04117   0.04117   2.79716
    R7        1.84183   0.03579   0.00000   0.06630   0.06630   1.90813
    R8        1.86322   0.02521   0.00000   0.04868   0.04868   1.91190
  bond2       2.76925  -0.00004   0.00000   0.00000  -0.00000   2.76925
  bond3       2.26512   0.01158   0.00000   0.00000  -0.00000   2.26512
   R11        2.20955   0.01692   0.00000   0.05916   0.05916   2.26871
    A1        2.16409  -0.00216   0.00000  -0.01206  -0.01222   2.15187
    A2        2.12465   0.00209   0.00000   0.01218   0.01203   2.13667
    A3        1.99395   0.00010   0.00000   0.00085   0.00069   1.99464
    A4        2.11624   0.00428   0.00000   0.02942   0.02892   2.14516
    A5        2.09876  -0.00416   0.00000  -0.01948  -0.02001   2.07875
    A6        2.02968   0.00040   0.00000   0.00605   0.00548   2.03516
    A7        2.11392   0.00133   0.00000   0.00913   0.00918   2.12309
    A8        2.05557  -0.00701   0.00000  -0.03837  -0.03832   2.01724
    A9        1.87520   0.00470   0.00000   0.02886   0.02892   1.90412
   A10        1.81441  -0.00132   0.00000  -0.02114  -0.01927   1.79514
   A11        2.06419  -0.00266   0.00000  -0.00990  -0.00994   2.05425
   A12        2.06767   0.00761   0.00000   0.05304   0.05183   2.11950
   A13        1.75527   0.00283   0.00000   0.01945   0.01671   1.77199
   A14        1.71780  -0.00735   0.00000  -0.06672  -0.06564   1.65216
   A15        1.96322  -0.00133   0.00000  -0.00024  -0.00081   1.96241
   A16        1.98213  -0.00780   0.00000  -0.02473  -0.02995   1.95218
    D1       -2.97612  -0.00242   0.00000  -0.05241  -0.05224  -3.02836
    D2        0.47094  -0.00448   0.00000  -0.11521  -0.11538   0.35556
    D3        0.20140  -0.00386   0.00000  -0.08724  -0.08707   0.11432
    D4       -2.63473  -0.00591   0.00000  -0.15004  -0.15021  -2.78494
    D5       -1.55264  -0.00199   0.00000  -0.15523  -0.15548  -1.70811
    D6        1.87980  -0.00466   0.00000  -0.21930  -0.21906   1.66075
    D7        0.02882   0.00086   0.00000   0.08823   0.08883   0.11765
    D8        1.95534   0.00221   0.00000   0.09342   0.09207   2.04741
    D9       -1.85346   0.00735   0.00000   0.16013   0.16084  -1.69263
   D10       -2.33667   0.00041   0.00000   0.07753   0.07816  -2.25852
   D11       -0.41015   0.00176   0.00000   0.08271   0.08139  -0.32876
   D12        2.06423   0.00690   0.00000   0.14943   0.15016   2.21439
   D13        2.09825  -0.00547   0.00000  -0.18516  -0.18573   1.91252
   D14       -0.04636  -0.00322   0.00000  -0.17429  -0.17423  -0.22059
   D15       -2.05159  -0.00051   0.00000  -0.16059  -0.15947  -2.21106
  bond1       4.09361  -0.00245   0.00000   0.00000   0.00000   4.09361
         Item               Value     Threshold  Converged?
 Maximum Force            0.035788     0.000450     NO 
 RMS     Force            0.009235     0.000300     NO 
 Maximum Displacement     0.571462     0.001800     NO 
 RMS     Displacement     0.205996     0.001200     NO 
 Predicted change in Energy=-1.015705D-02
 GradGradGradGradGradGradGradGradGradGradGradGradGradGradGradGradGradGrad

                          Input orientation:                          
 ---------------------------------------------------------------------
 Center     Atomic      Atomic             Coordinates (Angstroms)
 Number     Number       Type             X           Y           Z
 ---------------------------------------------------------------------
      1          7           0        2.383687    0.523612    0.235539
      2          5           0        2.152672   -0.737630    0.761439
      3          7           0       -0.280135   -1.187608   -1.052799
      4          5           0        0.249951   -1.724975    0.220471
      5          1           0        0.330415   -0.936268   -1.816752
      6          1           0        2.596002   -1.093002    1.804546
      7          1           0        1.699500   -1.590083    0.052914
      8          1           0        1.934680    0.865886   -0.602237
      9          1           0        3.020296    1.179020    0.662230
     10          1           0       -1.004217   -0.486669   -0.963349
     11          1           0        0.063291   -1.084407    1.216260
     12          1           0        0.285996   -2.905626    0.435134
 ---------------------------------------------------------------------
                    Distance matrix (angstroms):
                    1          2          3          4          5
     1  N    0.000000
     2  B    1.385882   0.000000
     3  N    3.418191   3.067978   0.000000
     4  B    3.099871   2.210847   1.480193   0.000000
     5  H    3.249473   3.163408   1.009736   2.186050   0.000000
     6  H    2.262808   1.187813   4.055308   2.900454   4.274488
     7  H    2.229163   1.197518   2.302942   1.465422   2.407804
     8  H    1.010261   2.116223   3.053726   3.198081   2.701199
     9  H    1.008413   2.106219   4.408525   4.037716   4.225548
    10  H    3.733080   3.606082   1.011737   2.123151   1.646718
    11  H    2.988607   2.166248   2.297220   1.198651   3.048354
    12  H    4.024900   2.879438   2.342228   1.200548   2.991878
                    6          7          8          9         10
     6  H    0.000000
     7  H    2.029536   0.000000
     8  H    3.172884   2.552708   0.000000
     9  H    2.578176   3.127890   1.695728   0.000000
    10  H    4.581534   3.091989   3.255291   4.649057   0.000000
    11  H    2.600149   2.070328   3.257709   3.764827   2.499511
    12  H    3.239911   1.968436   4.244832   4.920600   3.077622
                   11         12
    11  H    0.000000
    12  H    1.994140   0.000000
 Stoichiometry    B2H8N2
 Framework group  C1[X(B2H8N2)]
 Deg. of freedom    30
 Full point group                 C1      NOp   1
 Largest Abelian subgroup         C1      NOp   1
 Largest concise Abelian subgroup C1      NOp   1
                         Standard orientation:                         
 ---------------------------------------------------------------------
 Center     Atomic      Atomic             Coordinates (Angstroms)
 Number     Number       Type             X           Y           Z
 ---------------------------------------------------------------------
      1          7           0       -1.707911   -0.540480    0.044457
      2          5           0       -1.082736    0.680181   -0.155071
      3          7           0        1.708092   -0.591038   -0.066889
      4          5           0        1.109680    0.749669    0.121207
      5          1           0        1.361926   -1.232363   -0.765772
      6          1           0       -1.622137    1.720693    0.038015
      7          1           0       -0.054569    0.714700   -0.768041
      8          1           0       -1.228684   -1.427051   -0.025968
      9          1           0       -2.687254   -0.615408    0.272863
     10          1           0        1.907972   -1.103253    0.782402
     11          1           0        0.596764    0.987608    1.178121
     12          1           0        1.589998    1.726444   -0.385274
 ---------------------------------------------------------------------
 Rotational constants (GHZ):          13.7059897           3.8284540           3.1390500
 Standard basis: 6-31G(d,p) (6D, 7F)
 There are   100 symmetry adapted cartesian basis functions of A   symmetry.
 There are   100 symmetry adapted basis functions of A   symmetry.
   100 basis functions,   168 primitive gaussians,   100 cartesian basis functions
    16 alpha electrons       16 beta electrons
       nuclear repulsion energy       108.5065659012 Hartrees.
 NAtoms=   12 NActive=   12 NUniq=   12 SFac= 1.00D+00 NAtFMM=   60 NAOKFM=F Big=F
 Integral buffers will be    131072 words long.
 Raffenetti 2 integral format.
 Two-electron integral symmetry is turned on.
 One-electron integrals computed using PRISM.
 NBasis=   100 RedAO= T EigKep=  6.54D-03  NBF=   100
 NBsUse=   100 1.00D-06 EigRej= -1.00D+00 NBFU=   100
 Initial guess from the checkpoint file:  "/scratch/1311845/Gau-11310.chk"
 B after Tr=    -0.000000   -0.000000   -0.000000
         Rot=    0.999574    0.022666   -0.002878    0.018171 Ang=   3.35 deg.
 Initial guess <Sx>= 0.0000 <Sy>= 0.0000 <Sz>= 0.0000 <S**2>=-0.0000 S=-0.0000
 ExpMin= 1.27D-01 ExpMax= 4.17D+03 ExpMxC= 6.27D+02 IAcc=2 IRadAn=         4 AccDes= 0.00D+00
 Harris functional with IExCor=  402 and IRadAn=       4 diagonalized for initial guess.
 HarFok:  IExCor=  402 AccDes= 0.00D+00 IRadAn=         4 IDoV= 1 UseB2=F ITyADJ=14
 ICtDFT=  3500011 ScaDFX=  1.000000  1.000000  1.000000  1.000000
 FoFCou: FMM=F IPFlag=           0 FMFlag=      100000 FMFlg1=           0
         NFxFlg=           0 DoJE=T BraDBF=F KetDBF=T FulRan=T
         wScrn=  0.000000 ICntrl=       500 IOpCl=  0 I1Cent=   200000004 NGrid=           0
         NMat0=    1 NMatS0=      1 NMatT0=    0 NMatD0=    1 NMtDS0=    0 NMtDT0=    0
 Petite list used in FoFCou.
 Keep R1 and R2 ints in memory in canonical form, NReq=29209870.
 Requested convergence on RMS density matrix=1.00D-08 within1024 cycles.
 Requested convergence on MAX density matrix=1.00D-06.
 Requested convergence on             energy=1.00D-06.
 No special actions if energy rises.
 Integral accuracy reduced to 1.0D-05 until final iterations.
 Initial convergence to 1.0D-05 achieved.  Increase integral accuracy.
 SCF Done:  E(UB3LYP) =  -164.054233737     A.U. after   13 cycles
            NFock= 13  Conv=0.49D-08     -V/T= 2.0096
 <Sx>= 0.0000 <Sy>= 0.0000 <Sz>= 0.0000 <S**2>=-0.0000 S=-0.0000
 <L.S>= 0.000000000000E+00
 Annihilation of the first spin contaminant:
 S**2 before annihilation    -0.0000,   after    -0.0000
 Calling FoFJK, ICntrl=      2127 FMM=F ISym2X=0 I1Cent= 0 IOpClX= 1 NMat=1 NMatS=1 NMatT=0.
 ***** Axes restored to original set *****
 -------------------------------------------------------------------
 Center     Atomic                   Forces (Hartrees/Bohr)
 Number     Number              X              Y              Z
 -------------------------------------------------------------------
      1        7          -0.000028766   -0.001659849   -0.002619292
      2        5           0.003577898    0.008368217    0.015044773
      3        7          -0.005374353    0.001848955    0.001673372
      4        5          -0.002992504    0.001893683   -0.009391105
      5        1          -0.000950083   -0.006791456   -0.002321671
      6        1           0.002712812    0.000078776   -0.000914270
      7        1          -0.002685396   -0.011112276   -0.008745876
      8        1           0.000828095   -0.001407473   -0.000906768
      9        1          -0.002885224    0.001291744    0.001884648
     10        1           0.003921108    0.004137860    0.001511018
     11        1          -0.002865150    0.004652181    0.007433041
     12        1           0.006741564   -0.001300362   -0.002647869
 -------------------------------------------------------------------
 Cartesian Forces:  Max     0.015044773 RMS     0.005037350

 GradGradGradGradGradGradGradGradGradGradGradGradGradGradGradGradGradGrad
 Berny optimization.
 Using GEDIIS/GDIIS optimizer.
 FormGI is forming the generalized inverse of G from B-inverse, IUseBI=4.
 Internal  Forces:  Max     0.014605453 RMS     0.003824334
 Search for a local minimum.
 Step number   2 out of a maximum of   53
 All quantities printed in internal units (Hartrees-Bohrs-Radians)
 Mixed Optimization -- RFO/linear search
 Update second derivatives using D2CorX and points    1    2
 DE= -9.12D-03 DEPred=-1.02D-02 R= 8.98D-01
 TightC=F SS=  1.41D+00  RLast= 5.59D-01 DXNew= 5.0454D-01 1.6778D+00
 Trust test= 8.98D-01 RLast= 5.59D-01 DXMaxT set to 5.05D-01
 ITU=  1  0
 Use linear search instead of GDIIS.
     Eigenvalues ---    0.00247   0.00428   0.01181   0.02000   0.02497
     Eigenvalues ---    0.02595   0.02738   0.05632   0.08987   0.12067
     Eigenvalues ---    0.12882   0.15450   0.15847   0.16000   0.16000
     Eigenvalues ---    0.16000   0.16184   0.18198   0.26914   0.27029
     Eigenvalues ---    0.37157   0.44221   0.46004   0.49677   0.50509
     Eigenvalues ---    0.520441000.000001000.000001000.000001000.00000
     Eigenvalues --- 1000.000001000.000001000.000001000.000001000.00000
     Eigenvalues --- 1000.000001000.000001000.000001000.000001000.00000
     Eigenvalues --- 1000.000001000.000001000.00000
 RFO step:  Lambda=-9.42697890D-03 EMin= 2.46956538D-03
 Quartic linear search produced a step of  0.19775.
 Iteration  1 RMS(Cart)=  0.16534543 RMS(Int)=  0.03034503
 Iteration  2 RMS(Cart)=  0.06968422 RMS(Int)=  0.00200681
 Iteration  3 RMS(Cart)=  0.00278264 RMS(Int)=  0.00041838
 Iteration  4 RMS(Cart)=  0.00000412 RMS(Int)=  0.00041837
 Iteration  5 RMS(Cart)=  0.00000000 RMS(Int)=  0.00041837
 Iteration  1 RMS(Cart)=  0.00013178 RMS(Int)=  0.00004895
 Iteration  2 RMS(Cart)=  0.00003119 RMS(Int)=  0.00005318
 Iteration  3 RMS(Cart)=  0.00000738 RMS(Int)=  0.00005529
 Iteration  4 RMS(Cart)=  0.00000175 RMS(Int)=  0.00005585
 Iteration  5 RMS(Cart)=  0.00000041 RMS(Int)=  0.00005598
 Variable       Old X    -DE/DX   Delta X   Delta X   Delta X     New X
                                 (Linear)    (Quad)   (Total)
    R1        2.61894  -0.00134   0.00466   0.01111   0.01577   2.63471
    R2        1.90912  -0.00009  -0.00379  -0.01171  -0.01550   1.89362
    R3        1.90562  -0.00018  -0.00051  -0.00201  -0.00252   1.90311
    R4        2.24464   0.00019   0.00673   0.02075   0.02748   2.27212
  bond0       2.26298   0.01461  -0.00000   0.00000   0.00000   2.26298
    R6        2.79716  -0.00017   0.00814   0.02399   0.03213   2.82929
    R7        1.90813  -0.00051   0.01311   0.03880   0.05191   1.96004
    R8        1.91190   0.00019   0.00963   0.02972   0.03934   1.95125
  bond2       2.76925   0.00313  -0.00000   0.00000   0.00000   2.76925
  bond3       2.26512   0.00970  -0.00000   0.00000   0.00000   2.26512
   R11        2.26871   0.00101   0.01170   0.03893   0.05063   2.31933
    A1        2.15187  -0.00120  -0.00242  -0.01524  -0.01840   2.13347
    A2        2.13667   0.00069   0.00238   0.01146   0.01310   2.14977
    A3        1.99464   0.00051   0.00014   0.00383   0.00322   1.99786
    A4        2.14516   0.00193   0.00572   0.03040   0.03549   2.18065
    A5        2.07875  -0.00578  -0.00396  -0.05053  -0.05514   2.02361
    A6        2.03516   0.00395   0.00108   0.03084   0.03125   2.06640
    A7        2.12309   0.00102   0.00181   0.01313   0.01502   2.13812
    A8        2.01724  -0.00199  -0.00758  -0.03444  -0.04193   1.97531
    A9        1.90412   0.00094   0.00572   0.02410   0.02993   1.93405
   A10        1.79514   0.00687  -0.00381   0.03563   0.03230   1.82744
   A11        2.05425  -0.00131  -0.00197  -0.01312  -0.01570   2.03856
   A12        2.11950  -0.00065   0.01025   0.01596   0.02598   2.14548
   A13        1.77199  -0.00098   0.00330   0.03413   0.03679   1.80878
   A14        1.65216  -0.00571  -0.01298  -0.08651  -0.09887   1.55328
   A15        1.96241   0.00162  -0.00016   0.00584   0.00580   1.96821
   A16        1.95218  -0.00515  -0.00592  -0.02623  -0.03340   1.91878
    D1       -3.02836  -0.00082  -0.01033  -0.04584  -0.05606  -3.08442
    D2        0.35556  -0.00180  -0.02282  -0.10258  -0.12554   0.23002
    D3        0.11432  -0.00246  -0.01722  -0.11326  -0.13033  -0.01600
    D4       -2.78494  -0.00344  -0.02970  -0.17000  -0.19981  -2.98475
    D5       -1.70811   0.00340  -0.03075   0.35279   0.32188  -1.38624
    D6        1.66075   0.00265  -0.04332   0.29872   0.25557   1.91632
    D7        0.11765   0.00198   0.01757   0.16401   0.18169   0.29934
    D8        2.04741   0.00466   0.01821   0.22264   0.24039   2.28780
    D9       -1.69263   0.00456   0.03181   0.24017   0.27225  -1.42038
   D10       -2.25852   0.00171   0.01546   0.15151   0.16713  -2.09139
   D11       -0.32876   0.00439   0.01610   0.21014   0.22583  -0.10293
   D12        2.21439   0.00430   0.02969   0.22768   0.25768   2.47207
   D13        1.91252   0.00131  -0.03673   0.09127   0.05506   1.96758
   D14       -0.22059   0.00049  -0.03445   0.07834   0.04297  -0.17762
   D15       -2.21106   0.00047  -0.03153   0.08860   0.05758  -2.15348
  bond1       4.09361  -0.00248   0.00000   0.00000  -0.00000   4.09361
         Item               Value     Threshold  Converged?
 Maximum Force            0.005820     0.000450     NO 
 RMS     Force            0.002682     0.000300     NO 
 Maximum Displacement     0.539838     0.001800     NO 
 RMS     Displacement     0.225491     0.001200     NO 
 Predicted change in Energy=-7.678524D-03
 GradGradGradGradGradGradGradGradGradGradGradGradGradGradGradGradGradGrad

                          Input orientation:                          
 ---------------------------------------------------------------------
 Center     Atomic      Atomic             Coordinates (Angstroms)
 Number     Number       Type             X           Y           Z
 ---------------------------------------------------------------------
      1          7           0        2.226193    0.459420    0.283778
      2          5           0        2.242279   -0.848656    0.766009
      3          7           0       -0.245413   -1.129870   -1.087764
      4          5           0        0.268023   -1.619418    0.230690
      5          1           0        0.328404   -1.149812   -1.951555
      6          1           0        2.871540   -1.223377    1.719564
      7          1           0        1.723375   -1.671088    0.067159
      8          1           0        1.649010    0.738114   -0.486491
      9          1           0        2.740682    1.211295    0.712958
     10          1           0       -0.769557   -0.243147   -1.015884
     11          1           0        0.115119   -0.894644    1.173074
     12          1           0        0.282483   -2.806567    0.541858
 ---------------------------------------------------------------------
                    Distance matrix (angstroms):
                    1          2          3          4          5
     1  N    0.000000
     2  B    1.394227   0.000000
     3  N    3.242809   3.115152   0.000000
     4  B    2.856364   2.185939   1.497195   0.000000
     5  H    3.344839   3.337480   1.037207   2.233018   0.000000
     6  H    2.304292   1.202353   4.195859   3.025211   4.466551
     7  H    2.199731   1.197518   2.345824   1.465422   2.508562
     8  H    1.002061   2.106790   2.727587   2.824788   2.730325
     9  H    1.007080   2.120051   4.200050   3.789401   4.300412
    10  H    3.340245   3.551470   1.032556   2.127120   1.703831
    11  H    2.661009   2.166248   2.301457   1.198651   3.142278
    12  H    3.809369   2.779292   2.397009   1.227338   2.994004
                    6          7          8          9         10
     6  H    0.000000
     7  H    2.061352   0.000000
     8  H    3.195107   2.473118   0.000000
     9  H    2.637804   3.124117   1.689476   0.000000
    10  H    4.658446   3.070294   2.663192   4.174455   0.000000
    11  H    2.829236   2.100572   2.787988   3.397097   2.449212
    12  H    3.255258   1.894947   3.935691   4.713304   3.178753
                   11         12
    11  H    0.000000
    12  H    2.020370   0.000000
 Stoichiometry    B2H8N2
 Framework group  C1[X(B2H8N2)]
 Deg. of freedom    30
 Full point group                 C1      NOp   1
 Largest Abelian subgroup         C1      NOp   1
 Largest concise Abelian subgroup C1      NOp   1
                         Standard orientation:                         
 ---------------------------------------------------------------------
 Center     Atomic      Atomic             Coordinates (Angstroms)
 Number     Number       Type             X           Y           Z
 ---------------------------------------------------------------------
      1          7           0       -1.523386   -0.636938    0.052407
      2          5           0       -1.171443    0.681724   -0.232433
      3          7           0        1.712377   -0.489038   -0.101784
      4          5           0        0.961073    0.759672    0.241521
      5          1           0        1.627315   -0.954782   -1.024631
      6          1           0       -1.911326    1.625654   -0.147449
      7          1           0       -0.107126    0.837936   -0.758623
      8          1           0       -0.860431   -1.387364    0.013957
      9          1           0       -2.440108   -0.906106    0.370808
     10          1           0        1.714902   -1.184580    0.661359
     11          1           0        0.371878    0.766205    1.285346
     12          1           0        1.333806    1.877887   -0.100566
 ---------------------------------------------------------------------
 Rotational constants (GHZ):          13.1529635           4.1365563           3.3700471
 Standard basis: 6-31G(d,p) (6D, 7F)
 There are   100 symmetry adapted cartesian basis functions of A   symmetry.
 There are   100 symmetry adapted basis functions of A   symmetry.
   100 basis functions,   168 primitive gaussians,   100 cartesian basis functions
    16 alpha electrons       16 beta electrons
       nuclear repulsion energy       109.4781248941 Hartrees.
 NAtoms=   12 NActive=   12 NUniq=   12 SFac= 1.00D+00 NAtFMM=   60 NAOKFM=F Big=F
 Integral buffers will be    131072 words long.
 Raffenetti 2 integral format.
 Two-electron integral symmetry is turned on.
 One-electron integrals computed using PRISM.
 NBasis=   100 RedAO= T EigKep=  6.38D-03  NBF=   100
 NBsUse=   100 1.00D-06 EigRej= -1.00D+00 NBFU=   100
 Initial guess from the checkpoint file:  "/scratch/1311845/Gau-11310.chk"
 B after Tr=    -0.000000   -0.000000    0.000000
         Rot=    0.998627   -0.033898    0.006082   -0.039461 Ang=  -6.00 deg.
 Initial guess <Sx>= 0.0000 <Sy>= 0.0000 <Sz>= 0.0000 <S**2>= 0.0000 S= 0.0000
 ExpMin= 1.27D-01 ExpMax= 4.17D+03 ExpMxC= 6.27D+02 IAcc=2 IRadAn=         4 AccDes= 0.00D+00
 Harris functional with IExCor=  402 and IRadAn=       4 diagonalized for initial guess.
 HarFok:  IExCor=  402 AccDes= 0.00D+00 IRadAn=         4 IDoV= 1 UseB2=F ITyADJ=14
 ICtDFT=  3500011 ScaDFX=  1.000000  1.000000  1.000000  1.000000
 FoFCou: FMM=F IPFlag=           0 FMFlag=      100000 FMFlg1=           0
         NFxFlg=           0 DoJE=T BraDBF=F KetDBF=T FulRan=T
         wScrn=  0.000000 ICntrl=       500 IOpCl=  0 I1Cent=   200000004 NGrid=           0
         NMat0=    1 NMatS0=      1 NMatT0=    0 NMatD0=    1 NMtDS0=    0 NMtDT0=    0
 Petite list used in FoFCou.
 Keep R1 and R2 ints in memory in canonical form, NReq=29209870.
 Requested convergence on RMS density matrix=1.00D-08 within1024 cycles.
 Requested convergence on MAX density matrix=1.00D-06.
 Requested convergence on             energy=1.00D-06.
 No special actions if energy rises.
 Integral accuracy reduced to 1.0D-05 until final iterations.
 Initial convergence to 1.0D-05 achieved.  Increase integral accuracy.
 SCF Done:  E(UB3LYP) =  -164.056589907     A.U. after   13 cycles
            NFock= 13  Conv=0.33D-08     -V/T= 2.0104
 <Sx>= 0.0000 <Sy>= 0.0000 <Sz>= 0.0000 <S**2>=-0.0000 S=-0.0000
 <L.S>= 0.000000000000E+00
 Annihilation of the first spin contaminant:
 S**2 before annihilation    -0.0000,   after     0.0000
 Calling FoFJK, ICntrl=      2127 FMM=F ISym2X=0 I1Cent= 0 IOpClX= 1 NMat=1 NMatS=1 NMatT=0.
 ***** Axes restored to original set *****
 -------------------------------------------------------------------
 Center     Atomic                   Forces (Hartrees/Bohr)
 Number     Number              X              Y              Z
 -------------------------------------------------------------------
      1        7           0.014301752   -0.007138856    0.009905642
      2        5           0.004479115    0.022869201    0.007153535
      3        7           0.005834593    0.013520348    0.005290040
      4        5          -0.010283683   -0.015319494   -0.013194627
      5        1          -0.015252087   -0.004792367    0.017618599
      6        1          -0.003836590    0.002708943   -0.005561556
      7        1           0.001535582   -0.010334189   -0.005408371
      8        1          -0.005740926    0.000080831   -0.005839624
      9        1           0.000857766    0.001106611    0.000312804
     10        1           0.012789874   -0.011492631   -0.005396835
     11        1          -0.004470798    0.000330110    0.003887936
     12        1          -0.000214599    0.008461493   -0.008767543
 -------------------------------------------------------------------
 Cartesian Forces:  Max     0.022869201 RMS     0.009192788

 GradGradGradGradGradGradGradGradGradGradGradGradGradGradGradGradGradGrad
 Berny optimization.
 Using GEDIIS/GDIIS optimizer.
 FormGI is forming the generalized inverse of G from B-inverse, IUseBI=4.
 Internal  Forces:  Max     0.023019468 RMS     0.007439550
 Search for a local minimum.
 Step number   3 out of a maximum of   53
 All quantities printed in internal units (Hartrees-Bohrs-Radians)
 Mixed Optimization -- RFO/linear search
 Update second derivatives using D2CorX and points    2    3
 DE= -2.36D-03 DEPred=-7.68D-03 R= 3.07D-01
 Trust test= 3.07D-01 RLast= 7.71D-01 DXMaxT set to 5.05D-01
 ITU=  0  1  0
 Use linear search instead of GDIIS.
     Eigenvalues ---    0.00255   0.00479   0.01811   0.02361   0.02603
     Eigenvalues ---    0.02731   0.03033   0.05528   0.08840   0.12212
     Eigenvalues ---    0.13462   0.15729   0.15913   0.16000   0.16000
     Eigenvalues ---    0.16078   0.16997   0.18218   0.27011   0.27592
     Eigenvalues ---    0.38566   0.44530   0.46019   0.50316   0.50892
     Eigenvalues ---    0.559551000.000001000.000001000.000001000.00000
     Eigenvalues --- 1000.000001000.000001000.000001000.000001000.00000
     Eigenvalues --- 1000.000001000.000001000.000001000.000001000.00000
     Eigenvalues --- 1000.000001000.000001000.00000
 RFO step:  Lambda=-8.88694277D-03 EMin= 2.55210838D-03
 Quartic linear search produced a step of -0.34172.
 Iteration  1 RMS(Cart)=  0.18671973 RMS(Int)=  0.01676752
 Iteration  2 RMS(Cart)=  0.03468202 RMS(Int)=  0.00077164
 Iteration  3 RMS(Cart)=  0.00075329 RMS(Int)=  0.00067312
 Iteration  4 RMS(Cart)=  0.00000039 RMS(Int)=  0.00067312
 Iteration  1 RMS(Cart)=  0.00039465 RMS(Int)=  0.00015180
 Iteration  2 RMS(Cart)=  0.00009445 RMS(Int)=  0.00016503
 Iteration  3 RMS(Cart)=  0.00002260 RMS(Int)=  0.00017171
 Iteration  4 RMS(Cart)=  0.00000541 RMS(Int)=  0.00017347
 Iteration  5 RMS(Cart)=  0.00000129 RMS(Int)=  0.00017390
 Iteration  6 RMS(Cart)=  0.00000031 RMS(Int)=  0.00017401
 Variable       Old X    -DE/DX   Delta X   Delta X   Delta X     New X
                                 (Linear)    (Quad)   (Total)
    R1        2.63471  -0.00721  -0.00539  -0.00659  -0.01198   2.62273
    R2        1.89362   0.00782   0.00530   0.00466   0.00996   1.90358
    R3        1.90311   0.00140   0.00086   0.00038   0.00124   1.90434
    R4        2.27212  -0.00726  -0.00939  -0.00586  -0.01525   2.25686
  bond0       2.26298   0.01956  -0.00000   0.00000   0.00000   2.26298
    R6        2.82929  -0.01748  -0.01098  -0.01583  -0.02681   2.80248
    R7        1.96004  -0.02302  -0.01774  -0.01030  -0.02804   1.93200
    R8        1.95125  -0.01674  -0.01344  -0.00642  -0.01987   1.93138
  bond2       2.76925   0.00582  -0.00000   0.00000   0.00000   2.76925
  bond3       2.26512   0.00244  -0.00000   0.00000   0.00000   2.26512
   R11        2.31933  -0.01041  -0.01730  -0.00250  -0.01980   2.29954
    A1        2.13347  -0.00312   0.00629  -0.02305  -0.01675   2.11672
    A2        2.14977   0.00173  -0.00448   0.01178   0.00731   2.15707
    A3        1.99786   0.00138  -0.00110   0.00741   0.00631   2.00418
    A4        2.18065  -0.00510  -0.01213   0.00412  -0.00846   2.17219
    A5        2.02361   0.00753   0.01884  -0.03566  -0.01730   2.00630
    A6        2.06640  -0.00310  -0.01068   0.02495   0.01374   2.08014
    A7        2.13812  -0.00076  -0.00513   0.01142   0.00620   2.14432
    A8        1.97531   0.00470   0.01433  -0.00692   0.00732   1.98263
    A9        1.93405  -0.00264  -0.01023   0.00939  -0.00096   1.93309
   A10        1.82744   0.00456  -0.01104   0.07079   0.06097   1.88841
   A11        2.03856   0.00088   0.00536  -0.01072  -0.00501   2.03355
   A12        2.14548  -0.00442  -0.00888  -0.02073  -0.02955   2.11593
   A13        1.80878  -0.00606  -0.01257   0.00342  -0.01145   1.79733
   A14        1.55328   0.00214   0.03379  -0.06039  -0.02595   1.52733
   A15        1.96821   0.00289  -0.00198   0.02161   0.01930   1.98751
   A16        1.91878   0.00233   0.01141  -0.01664  -0.00904   1.90974
    D1       -3.08442  -0.00188   0.01916  -0.06616  -0.04685  -3.13127
    D2        0.23002   0.00284   0.04290  -0.02324   0.01951   0.24953
    D3       -0.01600  -0.00218   0.04454  -0.13361  -0.08893  -0.10493
    D4       -2.98475   0.00253   0.06828  -0.09069  -0.02257  -3.00731
    D5       -1.38624  -0.01009  -0.10999  -0.13971  -0.24991  -1.63615
    D6        1.91632  -0.00540  -0.08733  -0.09807  -0.18519   1.73113
    D7        0.29934   0.00652  -0.06209   0.23609   0.17445   0.47380
    D8        2.28780   0.00257  -0.08215   0.28219   0.19931   2.48711
    D9       -1.42038   0.00229  -0.09303   0.26967   0.17699  -1.24339
   D10       -2.09139   0.00564  -0.05711   0.21417   0.15746  -1.93393
   D11       -0.10293   0.00169  -0.07717   0.26026   0.18232   0.07939
   D12        2.47207   0.00141  -0.08805   0.24775   0.16000   2.63207
   D13        1.96758  -0.00304  -0.01881  -0.11617  -0.13472   1.83286
   D14       -0.17762  -0.00329  -0.01468  -0.13813  -0.15229  -0.32991
   D15       -2.15348  -0.00631  -0.01968  -0.14524  -0.16502  -2.31850
  bond1       4.09361   0.00533   0.00000   0.00000  -0.00000   4.09361
         Item               Value     Threshold  Converged?
 Maximum Force            0.023019     0.000450     NO 
 RMS     Force            0.007018     0.000300     NO 
 Maximum Displacement     0.536160     0.001800     NO 
 RMS     Displacement     0.203806     0.001200     NO 
 Predicted change in Energy=-7.520261D-03
 GradGradGradGradGradGradGradGradGradGradGradGradGradGradGradGradGradGrad

                          Input orientation:                          
 ---------------------------------------------------------------------
 Center     Atomic      Atomic             Coordinates (Angstroms)
 Number     Number       Type             X           Y           Z
 ---------------------------------------------------------------------
      1          7           0        2.338226    0.462974    0.200850
      2          5           0        2.162065   -0.769772    0.813658
      3          7           0       -0.299966   -1.089674   -1.012403
      4          5           0        0.282971   -1.693542    0.210233
      5          1           0        0.185648   -1.080006   -1.912030
      6          1           0        2.607622   -1.063009    1.882208
      7          1           0        1.742926   -1.634110    0.098610
      8          1           0        1.932733    0.662192   -0.699483
      9          1           0        2.786250    1.248086    0.646276
     10          1           0       -0.768905   -0.197260   -0.844285
     11          1           0        0.068508   -1.123935    1.242861
     12          1           0        0.394060   -2.899694    0.326902
 ---------------------------------------------------------------------
                    Distance matrix (angstroms):
                    1          2          3          4          5
     1  N    0.000000
     2  B    1.387887   0.000000
     3  N    3.292834   3.081952   0.000000
     4  B    2.979048   2.179097   1.483008   0.000000
     5  H    3.388015   3.381101   1.022371   2.211312   0.000000
     6  H    2.286517   1.194281   4.102871   2.932076   4.501387
     7  H    2.182337   1.197518   2.388340   1.465422   2.602849
     8  H    1.007329   2.095879   2.855153   3.016419   2.749151
     9  H    1.007735   2.118815   4.212014   3.887122   4.327594
    10  H    3.344022   3.415718   1.022042   2.111235   1.682406
    11  H    2.959002   2.166248   2.285424   1.198651   3.157370
    12  H    3.886284   2.810576   2.356180   1.216863   2.892666
                    6          7          8          9         10
     6  H    0.000000
     7  H    2.062783   0.000000
     8  H    3.177565   2.438438   0.000000
     9  H    2.626899   3.113762   1.697890   0.000000
    10  H    4.425406   3.043499   2.838745   4.117029   0.000000
    11  H    2.619079   2.091235   3.230834   3.656299   2.432317
    12  H    3.269899   1.863669   4.013479   4.798818   3.166594
                   11         12
    11  H    0.000000
    12  H    2.024421   0.000000
 Stoichiometry    B2H8N2
 Framework group  C1[X(B2H8N2)]
 Deg. of freedom    30
 Full point group                 C1      NOp   1
 Largest Abelian subgroup         C1      NOp   1
 Largest concise Abelian subgroup C1      NOp   1
                         Standard orientation:                         
 ---------------------------------------------------------------------
 Center     Atomic      Atomic             Coordinates (Angstroms)
 Number     Number       Type             X           Y           Z
 ---------------------------------------------------------------------
      1          7           0       -1.606749   -0.593386    0.002795
      2          5           0       -1.122629    0.700274   -0.132488
      3          7           0        1.685898   -0.563430   -0.015607
      4          5           0        1.041689    0.766227    0.112145
      5          1           0        1.624153   -1.130540   -0.864027
      6          1           0       -1.742545    1.685228    0.135613
      7          1           0       -0.120267    0.799431   -0.780166
      8          1           0       -1.038083   -1.391634   -0.229866
      9          1           0       -2.495707   -0.814976    0.422534
     10          1           0        1.588831   -1.146838    0.817929
     11          1           0        0.567997    1.030838    1.180958
     12          1           0        1.466276    1.733700   -0.491574
 ---------------------------------------------------------------------
 Rotational constants (GHZ):          13.1850467           4.0697098           3.2818487
 Standard basis: 6-31G(d,p) (6D, 7F)
 There are   100 symmetry adapted cartesian basis functions of A   symmetry.
 There are   100 symmetry adapted basis functions of A   symmetry.
   100 basis functions,   168 primitive gaussians,   100 cartesian basis functions
    16 alpha electrons       16 beta electrons
       nuclear repulsion energy       109.2371286455 Hartrees.
 NAtoms=   12 NActive=   12 NUniq=   12 SFac= 1.00D+00 NAtFMM=   60 NAOKFM=F Big=F
 Integral buffers will be    131072 words long.
 Raffenetti 2 integral format.
 Two-electron integral symmetry is turned on.
 One-electron integrals computed using PRISM.
 NBasis=   100 RedAO= T EigKep=  6.73D-03  NBF=   100
 NBsUse=   100 1.00D-06 EigRej= -1.00D+00 NBFU=   100
 Initial guess from the checkpoint file:  "/scratch/1311845/Gau-11310.chk"
 B after Tr=    -0.000000   -0.000000   -0.000000
         Rot=    0.999425    0.024757   -0.001977    0.023081 Ang=   3.89 deg.
 Initial guess <Sx>= 0.0000 <Sy>= 0.0000 <Sz>= 0.0000 <S**2>=-0.0000 S=-0.0000
 ExpMin= 1.27D-01 ExpMax= 4.17D+03 ExpMxC= 6.27D+02 IAcc=2 IRadAn=         4 AccDes= 0.00D+00
 Harris functional with IExCor=  402 and IRadAn=       4 diagonalized for initial guess.
 HarFok:  IExCor=  402 AccDes= 0.00D+00 IRadAn=         4 IDoV= 1 UseB2=F ITyADJ=14
 ICtDFT=  3500011 ScaDFX=  1.000000  1.000000  1.000000  1.000000
 FoFCou: FMM=F IPFlag=           0 FMFlag=      100000 FMFlg1=           0
         NFxFlg=           0 DoJE=T BraDBF=F KetDBF=T FulRan=T
         wScrn=  0.000000 ICntrl=       500 IOpCl=  0 I1Cent=   200000004 NGrid=           0
         NMat0=    1 NMatS0=      1 NMatT0=    0 NMatD0=    1 NMtDS0=    0 NMtDT0=    0
 Petite list used in FoFCou.
 Keep R1 and R2 ints in memory in canonical form, NReq=29209870.
 Requested convergence on RMS density matrix=1.00D-08 within1024 cycles.
 Requested convergence on MAX density matrix=1.00D-06.
 Requested convergence on             energy=1.00D-06.
 No special actions if energy rises.
 Integral accuracy reduced to 1.0D-05 until final iterations.
 Initial convergence to 1.0D-05 achieved.  Increase integral accuracy.
 SCF Done:  E(UB3LYP) =  -164.064512470     A.U. after   11 cycles
            NFock= 11  Conv=0.69D-08     -V/T= 2.0100
 <Sx>= 0.0000 <Sy>= 0.0000 <Sz>= 0.0000 <S**2>=-0.0000 S=-0.0000
 <L.S>= 0.000000000000E+00
 Annihilation of the first spin contaminant:
 S**2 before annihilation    -0.0000,   after    -0.0000
 Calling FoFJK, ICntrl=      2127 FMM=F ISym2X=0 I1Cent= 0 IOpClX= 1 NMat=1 NMatS=1 NMatT=0.
 ***** Axes restored to original set *****
 -------------------------------------------------------------------
 Center     Atomic                   Forces (Hartrees/Bohr)
 Number     Number              X              Y              Z
 -------------------------------------------------------------------
      1        7           0.002365733   -0.001406173    0.005306199
      2        5           0.006682301    0.012878123    0.007972386
      3        7           0.005225677    0.008137867    0.011144261
      4        5          -0.011594971   -0.011360799   -0.017172004
      5        1          -0.008496843   -0.006391159    0.008065962
      6        1          -0.001519726    0.001528501   -0.002736094
      7        1           0.003277725   -0.009258018   -0.005232708
      8        1          -0.002052647    0.001335087   -0.001698417
      9        1           0.000569374    0.000611634   -0.000527049
     10        1           0.007709706   -0.004715119   -0.005361937
     11        1          -0.001915836    0.002520311    0.004360334
     12        1          -0.000250493    0.006119745   -0.004120934
 -------------------------------------------------------------------
 Cartesian Forces:  Max     0.017172004 RMS     0.006674546

 GradGradGradGradGradGradGradGradGradGradGradGradGradGradGradGradGradGrad
 Berny optimization.
 Using GEDIIS/GDIIS optimizer.
 FormGI is forming the generalized inverse of G from B-inverse, IUseBI=4.
 Internal  Forces:  Max     0.017405238 RMS     0.005004270
 Search for a local minimum.
 Step number   4 out of a maximum of   53
 All quantities printed in internal units (Hartrees-Bohrs-Radians)
 Mixed Optimization -- RFO/linear search
 Update second derivatives using D2CorX and points    3    4
 DE= -7.92D-03 DEPred=-7.52D-03 R= 1.05D+00
 TightC=F SS=  1.41D+00  RLast= 6.09D-01 DXNew= 8.4853D-01 1.8276D+00
 Trust test= 1.05D+00 RLast= 6.09D-01 DXMaxT set to 8.49D-01
 ITU=  1  0  1  0
 Use linear search instead of GDIIS.
     Eigenvalues ---    0.00305   0.00436   0.01877   0.02456   0.02595
     Eigenvalues ---    0.02660   0.04725   0.05715   0.08097   0.11867
     Eigenvalues ---    0.12890   0.15339   0.15803   0.15943   0.16000
     Eigenvalues ---    0.16038   0.16489   0.17882   0.26086   0.27037
     Eigenvalues ---    0.35043   0.44254   0.46006   0.48418   0.50608
     Eigenvalues ---    0.514801000.000001000.000001000.000001000.00000
     Eigenvalues --- 1000.000001000.000001000.000001000.000001000.00000
     Eigenvalues --- 1000.000001000.000001000.000001000.000001000.00000
     Eigenvalues --- 1000.000001000.000001000.00000
 RFO step:  Lambda=-8.09519890D-03 EMin= 3.05374089D-03
 Quartic linear search produced a step of  0.73787.
 Iteration  1 RMS(Cart)=  0.11026658 RMS(Int)=  0.05979461
 Iteration  2 RMS(Cart)=  0.05635588 RMS(Int)=  0.00451146
 Iteration  3 RMS(Cart)=  0.00433102 RMS(Int)=  0.00104362
 Iteration  4 RMS(Cart)=  0.00002369 RMS(Int)=  0.00104344
 Iteration  5 RMS(Cart)=  0.00000001 RMS(Int)=  0.00104344
 Iteration  1 RMS(Cart)=  0.00056240 RMS(Int)=  0.00022097
 Iteration  2 RMS(Cart)=  0.00013676 RMS(Int)=  0.00024043
 Iteration  3 RMS(Cart)=  0.00003324 RMS(Int)=  0.00025041
 Iteration  4 RMS(Cart)=  0.00000808 RMS(Int)=  0.00025310
 Iteration  5 RMS(Cart)=  0.00000196 RMS(Int)=  0.00025376
 Iteration  6 RMS(Cart)=  0.00000048 RMS(Int)=  0.00025393
 Variable       Old X    -DE/DX   Delta X   Delta X   Delta X     New X
                                 (Linear)    (Quad)   (Total)
    R1        2.62273  -0.00077  -0.00884   0.00596  -0.00288   2.61984
    R2        1.90358   0.00261   0.00735   0.00046   0.00781   1.91138
    R3        1.90434   0.00050   0.00091   0.00029   0.00120   1.90555
    R4        2.25686  -0.00339  -0.01126  -0.00459  -0.01585   2.24102
  bond0       2.26298   0.01741   0.00000   0.00000  -0.00000   2.26298
    R6        2.80248  -0.01437  -0.01978  -0.03781  -0.05759   2.74488
    R7        1.93200  -0.01119  -0.02069  -0.00657  -0.02725   1.90475
    R8        1.93138  -0.00854  -0.01466  -0.00635  -0.02101   1.91037
  bond2       2.76925   0.00794   0.00000   0.00000  -0.00000   2.76925
  bond3       2.26512   0.00493   0.00000   0.00000  -0.00000   2.26512
   R11        2.29954  -0.00648  -0.01461  -0.01218  -0.02678   2.27275
    A1        2.11672   0.00002  -0.01236  -0.00161  -0.01476   2.10196
    A2        2.15707   0.00062   0.00539   0.00633   0.01093   2.16801
    A3        2.00418  -0.00070   0.00466  -0.00811  -0.00425   1.99993
    A4        2.17219  -0.00287  -0.00624  -0.00739  -0.01418   2.15800
    A5        2.00630   0.00483  -0.01277   0.02666   0.01333   2.01963
    A6        2.08014  -0.00184   0.01014  -0.00478   0.00476   2.08490
    A7        2.14432  -0.00109   0.00458   0.00367   0.00714   2.15146
    A8        1.98263   0.00453   0.00540   0.03338   0.03763   2.02026
    A9        1.93309  -0.00194  -0.00070   0.00613   0.00406   1.93715
   A10        1.88841   0.00207   0.04499   0.00632   0.05341   1.94182
   A11        2.03355   0.00048  -0.00370  -0.01571  -0.01906   2.01449
   A12        2.11593  -0.00299  -0.02180  -0.00963  -0.03165   2.08429
   A13        1.79733  -0.00457  -0.00845  -0.00977  -0.02108   1.77625
   A14        1.52733   0.00307  -0.01915   0.01705  -0.00072   1.52662
   A15        1.98751   0.00216   0.01424   0.01967   0.03352   2.02104
   A16        1.90974  -0.00157  -0.00667   0.00901  -0.00309   1.90665
    D1       -3.13127   0.00131  -0.03457   0.05881   0.02429  -3.10699
    D2        0.24953   0.00089   0.01440  -0.01041   0.00384   0.25337
[...]
 Center     Atomic      Atomic             Coordinates (Angstroms)
 Number     Number       Type             X           Y           Z
 ---------------------------------------------------------------------
      1          7           0       -1.557850   -0.604132   -0.032124
      2          5           0       -1.144235    0.715399   -0.115084
      3          7           0        1.538509   -0.589319   -0.013577
      4          5           0        1.053656    0.761302    0.118032
      5          1           0        2.280983   -0.816314   -0.655869
      6          1           0       -1.807549    1.643131    0.220610
      7          1           0       -0.134783    0.929779   -0.722618
      8          1           0       -0.926325   -1.350969   -0.292251
      9          1           0       -2.435362   -0.899939    0.364931
     10          1           0        1.467465   -1.246862    0.747307
     11          1           0        0.564861    1.081848    1.164500
     12          1           0        1.578994    1.629980   -0.521440
 ---------------------------------------------------------------------
 Rotational constants (GHZ):          13.2826389           4.2863068           3.4028462

 **********************************************************************

            Population analysis using the SCF density.

 **********************************************************************

 Orbital symmetries:
 Alpha Orbitals:
       Occupied  (A) (A) (A) (A) (A) (A) (A) (A) (A) (A) (A) (A)
                 (A) (A) (A) (A)
       Virtual   (A) (A) (A) (A) (A) (A) (A) (A) (A) (A) (A) (A)
                 (A) (A) (A) (A) (A) (A) (A) (A) (A) (A) (A) (A)
                 (A) (A) (A) (A) (A) (A) (A) (A) (A) (A) (A) (A)
                 (A) (A) (A) (A) (A) (A) (A) (A) (A) (A) (A) (A)
                 (A) (A) (A) (A) (A) (A) (A) (A) (A) (A) (A) (A)
                 (A) (A) (A) (A) (A) (A) (A) (A) (A) (A) (A) (A)
                 (A) (A) (A) (A) (A) (A) (A) (A) (A) (A) (A) (A)
 Beta  Orbitals:
       Occupied  (A) (A) (A) (A) (A) (A) (A) (A) (A) (A) (A) (A)
                 (A) (A) (A) (A)
       Virtual   (A) (A) (A) (A) (A) (A) (A) (A) (A) (A) (A) (A)
                 (A) (A) (A) (A) (A) (A) (A) (A) (A) (A) (A) (A)
                 (A) (A) (A) (A) (A) (A) (A) (A) (A) (A) (A) (A)
                 (A) (A) (A) (A) (A) (A) (A) (A) (A) (A) (A) (A)
                 (A) (A) (A) (A) (A) (A) (A) (A) (A) (A) (A) (A)
                 (A) (A) (A) (A) (A) (A) (A) (A) (A) (A) (A) (A)
                 (A) (A) (A) (A) (A) (A) (A) (A) (A) (A) (A) (A)
 The electronic state is 1-A.
 Alpha  occ. eigenvalues --  -14.33641 -14.29877  -6.75396  -6.72340  -0.87023
 Alpha  occ. eigenvalues --   -0.83208  -0.57210  -0.51300  -0.49134  -0.47818
 Alpha  occ. eigenvalues --   -0.42184  -0.36206  -0.34652  -0.31884  -0.28733
 Alpha  occ. eigenvalues --   -0.23559
 Alpha virt. eigenvalues --    0.00816   0.07249   0.10183   0.12003   0.14052
 Alpha virt. eigenvalues --    0.15867   0.19484   0.20228   0.22515   0.24281
 Alpha virt. eigenvalues --    0.28172   0.32120   0.42834   0.43327   0.46340
 Alpha virt. eigenvalues --    0.50096   0.55403   0.56440   0.58846   0.69269
 Alpha virt. eigenvalues --    0.73970   0.74451   0.78655   0.82663   0.83588
 Alpha virt. eigenvalues --    0.84706   0.88958   0.91493   0.92659   0.93017
 Alpha virt. eigenvalues --    0.93999   0.96586   1.11067   1.16405   1.18388
 Alpha virt. eigenvalues --    1.20913   1.22360   1.29007   1.37127   1.45706
 Alpha virt. eigenvalues --    1.48191   1.54373   1.61176   1.65420   1.70760
 Alpha virt. eigenvalues --    1.73333   1.77861   1.81772   1.96321   2.04248
 Alpha virt. eigenvalues --    2.08662   2.13323   2.17924   2.19737   2.26134
 Alpha virt. eigenvalues --    2.27873   2.32692   2.35717   2.39232   2.41485
 Alpha virt. eigenvalues --    2.45908   2.54529   2.55987   2.60522   2.61728
 Alpha virt. eigenvalues --    2.66954   2.67900   2.70746   2.76912   2.79842
 Alpha virt. eigenvalues --    2.93898   2.99596   3.09722   3.13491   3.21782
 Alpha virt. eigenvalues --    3.26197   3.30412   3.34391   3.56339   3.61479
 Alpha virt. eigenvalues --    3.66791   3.73878   4.17629   4.19478
  Beta  occ. eigenvalues --  -14.33641 -14.29877  -6.75396  -6.72340  -0.87023
  Beta  occ. eigenvalues --   -0.83208  -0.57210  -0.51300  -0.49134  -0.47818
  Beta  occ. eigenvalues --   -0.42184  -0.36206  -0.34652  -0.31884  -0.28733
  Beta  occ. eigenvalues --   -0.23559
  Beta virt. eigenvalues --    0.00816   0.07249   0.10183   0.12003   0.14052
  Beta virt. eigenvalues --    0.15867   0.19484   0.20228   0.22515   0.24281
  Beta virt. eigenvalues --    0.28172   0.32120   0.42834   0.43327   0.46340
  Beta virt. eigenvalues --    0.50096   0.55403   0.56440   0.58846   0.69269
  Beta virt. eigenvalues --    0.73970   0.74451   0.78655   0.82663   0.83588
  Beta virt. eigenvalues --    0.84706   0.88958   0.91493   0.92659   0.93017
  Beta virt. eigenvalues --    0.93999   0.96586   1.11067   1.16405   1.18388
  Beta virt. eigenvalues --    1.20913   1.22360   1.29007   1.37127   1.45706
  Beta virt. eigenvalues --    1.48191   1.54373   1.61176   1.65420   1.70760
  Beta virt. eigenvalues --    1.73333   1.77861   1.81772   1.96321   2.04248
  Beta virt. eigenvalues --    2.08662   2.13323   2.17924   2.19737   2.26134
  Beta virt. eigenvalues --    2.27873   2.32692   2.35717   2.39232   2.41485
  Beta virt. eigenvalues --    2.45908   2.54529   2.55987   2.60522   2.61728
  Beta virt. eigenvalues --    2.66954   2.67900   2.70746   2.76912   2.79842
  Beta virt. eigenvalues --    2.93898   2.99596   3.09722   3.13491   3.21782
  Beta virt. eigenvalues --    3.26197   3.30412   3.34391   3.56339   3.61479
  Beta virt. eigenvalues --    3.66791   3.73878   4.17629   4.19478
          Condensed to atoms (all electrons):
               1          2          3          4          5          6
     1  N    6.411569   0.510349  -0.012000  -0.010538   0.000083  -0.023665
     2  B    0.510349   3.557666  -0.012104   0.053773   0.001234   0.402822
     3  N   -0.012000  -0.012104   6.523742   0.459815   0.360643   0.000754
     4  B   -0.010538   0.053773   0.459815   3.536906  -0.035358  -0.004807
     5  H    0.000083   0.001234   0.360643  -0.035358   0.463544  -0.000013
     6  H   -0.023665   0.402822   0.000754  -0.004807  -0.000013   0.704336
     7  H   -0.016746   0.337756  -0.032622   0.074484  -0.000426  -0.025926
     8  H    0.339473  -0.036228   0.022723  -0.000749  -0.000219   0.003941
     9  H    0.357751  -0.033874   0.000037   0.000868  -0.000002  -0.002718
    10  H    0.001653  -0.002233   0.356375  -0.036060  -0.032136  -0.000019
    11  H   -0.008337   0.021728  -0.024766   0.400316   0.003157  -0.000069
    12  H    0.000800  -0.025710  -0.023917   0.398754  -0.003907   0.000705
               7          8          9         10         11         12
     1  N   -0.016746   0.339473   0.357751   0.001653  -0.008337   0.000800
     2  B    0.337756  -0.036228  -0.033874  -0.002233   0.021728  -0.025710
     3  N   -0.032622   0.022723   0.000037   0.356375  -0.024766  -0.023917
     4  B    0.074484  -0.000749   0.000868  -0.036060   0.400316   0.398754
     5  H   -0.000426  -0.000219  -0.000002  -0.032136   0.003157  -0.003907
     6  H   -0.025926   0.003941  -0.002718  -0.000019  -0.000069   0.000705
     7  H    0.737800  -0.009551   0.002938   0.001730  -0.054187  -0.005486
     8  H   -0.009551   0.442696  -0.028049   0.000313   0.000914   0.000256
     9  H    0.002938  -0.028049   0.441027  -0.000012  -0.000178  -0.000025
    10  H    0.001730   0.000313  -0.000012   0.472893  -0.004903   0.003713
    11  H   -0.054187   0.000914  -0.000178  -0.004903   0.757417  -0.019104
    12  H   -0.005486   0.000256  -0.000025   0.003713  -0.019104   0.763976
          Atomic-Atomic Spin Densities.
               1          2          3          4          5          6
     1  N    0.000000  -0.000000  -0.000000   0.000000  -0.000000  -0.000000
     2  B   -0.000000   0.000000   0.000000  -0.000000   0.000000   0.000000
     3  N   -0.000000   0.000000   0.000000  -0.000000   0.000000  -0.000000
     4  B    0.000000  -0.000000  -0.000000  -0.000000  -0.000000   0.000000
     5  H   -0.000000   0.000000   0.000000  -0.000000   0.000000  -0.000000
     6  H   -0.000000   0.000000  -0.000000   0.000000  -0.000000  -0.000000
     7  H    0.000000   0.000000   0.000000   0.000000   0.000000   0.000000
     8  H    0.000000  -0.000000   0.000000   0.000000  -0.000000  -0.000000
     9  H    0.000000   0.000000   0.000000  -0.000000   0.000000  -0.000000
    10  H    0.000000  -0.000000   0.000000  -0.000000   0.000000  -0.000000
    11  H   -0.000000  -0.000000   0.000000   0.000000  -0.000000  -0.000000
    12  H    0.000000  -0.000000   0.000000  -0.000000  -0.000000  -0.000000
               7          8          9         10         11         12
     1  N    0.000000   0.000000   0.000000   0.000000  -0.000000   0.000000
     2  B    0.000000  -0.000000   0.000000  -0.000000  -0.000000  -0.000000
     3  N    0.000000   0.000000   0.000000   0.000000   0.000000   0.000000
     4  B    0.000000   0.000000  -0.000000  -0.000000   0.000000  -0.000000
     5  H    0.000000  -0.000000   0.000000   0.000000  -0.000000  -0.000000
     6  H    0.000000  -0.000000  -0.000000  -0.000000  -0.000000  -0.000000
     7  H    0.000000  -0.000000  -0.000000  -0.000000   0.000000   0.000000
     8  H   -0.000000   0.000000  -0.000000   0.000000  -0.000000   0.000000
     9  H   -0.000000  -0.000000  -0.000000   0.000000   0.000000   0.000000
    10  H   -0.000000   0.000000   0.000000   0.000000  -0.000000   0.000000
    11  H    0.000000  -0.000000   0.000000  -0.000000   0.000000   0.000000
    12  H    0.000000   0.000000   0.000000   0.000000   0.000000   0.000000
 Mulliken charges and spin densities:
               1          2
     1  N   -0.550393   0.000000
     2  B    0.224822   0.000000
     3  N   -0.618680  -0.000000
     4  B    0.162598  -0.000000
     5  H    0.243400   0.000000
     6  H   -0.055342  -0.000000
     7  H   -0.009764   0.000000
     8  H    0.264478   0.000000
     9  H    0.262235   0.000000
    10  H    0.238687  -0.000000
    11  H   -0.071986   0.000000
    12  H   -0.090055   0.000000
 Sum of Mulliken charges =  -0.00000   0.00000
 Mulliken charges and spin densities with hydrogens summed into heavy atoms:
               1          2
     1  N   -0.023679   0.000000
     2  B    0.159716   0.000000
     3  N   -0.136593  -0.000000
     4  B    0.000556  -0.000000
 Electronic spatial extent (au):  <R**2>=            386.7881
 Charge=             -0.0000 electrons
 Dipole moment (field-independent basis, Debye):
    X=             -0.9434    Y=             -2.8847    Z=              0.0148  Tot=              3.0351
 Quadrupole moment (field-independent basis, Debye-Ang):
   XX=            -23.6629   YY=            -26.4690   ZZ=            -27.5509
   XY=             -0.6719   XZ=             -1.6742   YZ=             -1.1430
 Traceless Quadrupole moment (field-independent basis, Debye-Ang):
   XX=              2.2313   YY=             -0.5748   ZZ=             -1.6566
   XY=             -0.6719   XZ=             -1.6742   YZ=             -1.1430
 Octapole moment (field-independent basis, Debye-Ang**2):
  XXX=             -5.4322  YYY=            -21.1650  ZZZ=             -0.6993  XYY=             -1.8648
  XXY=            -15.9604  XXZ=              0.5530  XZZ=              1.4758  YZZ=             -5.5051
  YYZ=              0.6468  XYZ=              1.1771
 Hexadecapole moment (field-independent basis, Debye-Ang**3):
 XXXX=           -301.4836 YYYY=           -146.9499 ZZZZ=            -46.5060 XXXY=              1.2921
 XXXZ=            -19.9580 YYYX=             -1.6549 YYYZ=             -2.3064 ZZZX=             -2.0606
 ZZZY=             -2.2362 XXYY=            -76.1621 XXZZ=            -62.4497 YYZZ=            -31.7551
 XXYZ=             -1.8652 YYXZ=              0.8238 ZZXY=             -3.2865
 N-N= 1.104886526114D+02 E-N=-6.014229681116D+02  KE= 1.625395204868D+02
                          Isotropic Fermi Contact Couplings
        Atom                 a.u.       MegaHertz       Gauss      10(-4) cm-1
     1  N(14)              0.00000       0.00000       0.00000       0.00000
     2  B(11)              0.00000       0.00000       0.00000       0.00000
     3  N(14)              0.00000       0.00000       0.00000       0.00000
     4  B(11)             -0.00000      -0.00000      -0.00000      -0.00000
     5  H(1)              -0.00000      -0.00000      -0.00000      -0.00000
     6  H(1)               0.00000       0.00000       0.00000       0.00000
     7  H(1)               0.00000       0.00000       0.00000       0.00000
     8  H(1)               0.00000       0.00000       0.00000       0.00000
     9  H(1)               0.00000       0.00000       0.00000       0.00000
    10  H(1)              -0.00000      -0.00000      -0.00000      -0.00000
    11  H(1)              -0.00000      -0.00000      -0.00000      -0.00000
    12  H(1)              -0.00000      -0.00000      -0.00000      -0.00000
 --------------------------------------------------------
       Center         ----  Spin Dipole Couplings  ----
                      3XX-RR        3YY-RR        3ZZ-RR
 --------------------------------------------------------
     1   Atom        0.000000      0.000000      0.000000
     2   Atom        0.000000      0.000000      0.000000
     3   Atom        0.000000      0.000000      0.000000
     4   Atom        0.000000      0.000000      0.000000
     5   Atom        0.000000      0.000000      0.000000
     6   Atom        0.000000      0.000000      0.000000
     7   Atom        0.000000      0.000000      0.000000
     8   Atom        0.000000      0.000000      0.000000
     9   Atom        0.000000      0.000000      0.000000
    10   Atom        0.000000      0.000000      0.000000
    11   Atom        0.000000      0.000000      0.000000
    12   Atom        0.000000      0.000000      0.000000
 --------------------------------------------------------
                        XY            XZ            YZ
 --------------------------------------------------------
     1   Atom        0.000000      0.000000      0.000000
     2   Atom        0.000000      0.000000      0.000000
     3   Atom        0.000000      0.000000      0.000000
     4   Atom        0.000000      0.000000      0.000000
     5   Atom        0.000000      0.000000      0.000000
     6   Atom        0.000000      0.000000      0.000000
     7   Atom        0.000000      0.000000      0.000000
     8   Atom        0.000000      0.000000      0.000000
     9   Atom        0.000000      0.000000      0.000000
    10   Atom        0.000000      0.000000      0.000000
    11   Atom        0.000000      0.000000      0.000000
    12   Atom        0.000000      0.000000      0.000000
 --------------------------------------------------------


 ---------------------------------------------------------------------------------
              Anisotropic Spin Dipole Couplings in Principal Axis System
 ---------------------------------------------------------------------------------

       Atom             a.u.   MegaHertz   Gauss  10(-4) cm-1        Axes

              Baa     0.0000     0.000     0.000     0.000  1.0000  0.0000  0.0000
     1 N(14)  Bbb     0.0000     0.000     0.000     0.000 -0.0000  1.0000  0.0000
              Bcc     0.0000     0.000     0.000     0.000  0.0000  0.0000  1.0000
 
              Baa     0.0000     0.000     0.000     0.000  1.0000  0.0000  0.0000
     2 B(11)  Bbb     0.0000     0.000     0.000     0.000 -0.0000  1.0000  0.0000
              Bcc     0.0000     0.000     0.000     0.000  0.0000  0.0000  1.0000
 
              Baa     0.0000     0.000     0.000     0.000  1.0000  0.0000  0.0000
     3 N(14)  Bbb     0.0000     0.000     0.000     0.000 -0.0000  1.0000  0.0000
              Bcc     0.0000     0.000     0.000     0.000  0.0000  0.0000  1.0000
 
              Baa     0.0000     0.000     0.000     0.000  1.0000  0.0000  0.0000
     4 B(11)  Bbb     0.0000     0.000     0.000     0.000 -0.0000  1.0000  0.0000
              Bcc     0.0000     0.000     0.000     0.000  0.0000  0.0000  1.0000
 
              Baa     0.0000     0.000     0.000     0.000  1.0000  0.0000  0.0000
     5 H(1)   Bbb     0.0000     0.000     0.000     0.000 -0.0000  1.0000  0.0000
              Bcc     0.0000     0.000     0.000     0.000  0.0000  0.0000  1.0000
 
              Baa     0.0000     0.000     0.000     0.000  1.0000  0.0000  0.0000
     6 H(1)   Bbb     0.0000     0.000     0.000     0.000 -0.0000  1.0000  0.0000
              Bcc     0.0000     0.000     0.000     0.000  0.0000  0.0000  1.0000
 
              Baa     0.0000     0.000     0.000     0.000  1.0000  0.0000  0.0000
     7 H(1)   Bbb     0.0000     0.000     0.000     0.000 -0.0000  1.0000  0.0000
              Bcc     0.0000     0.000     0.000     0.000  0.0000  0.0000  1.0000
 
              Baa     0.0000     0.000     0.000     0.000  1.0000  0.0000  0.0000
     8 H(1)   Bbb     0.0000     0.000     0.000     0.000 -0.0000  1.0000  0.0000
              Bcc     0.0000     0.000     0.000     0.000  0.0000  0.0000  1.0000
 
              Baa     0.0000     0.000     0.000     0.000  1.0000  0.0000  0.0000
     9 H(1)   Bbb     0.0000     0.000     0.000     0.000 -0.0000  1.0000  0.0000
              Bcc     0.0000     0.000     0.000     0.000  0.0000  0.0000  1.0000
 
              Baa     0.0000     0.000     0.000     0.000  1.0000  0.0000  0.0000
    10 H(1)   Bbb     0.0000     0.000     0.000     0.000 -0.0000  1.0000  0.0000
              Bcc     0.0000     0.000     0.000     0.000  0.0000  0.0000  1.0000
 
              Baa     0.0000     0.000     0.000     0.000  1.0000  0.0000  0.0000
    11 H(1)   Bbb     0.0000     0.000     0.000     0.000 -0.0000  1.0000  0.0000
              Bcc     0.0000     0.000     0.000     0.000  0.0000  0.0000  1.0000
 
              Baa     0.0000     0.000     0.000     0.000  1.0000  0.0000  0.0000
    12 H(1)   Bbb     0.0000     0.000     0.000     0.000 -0.0000  1.0000  0.0000
              Bcc     0.0000     0.000     0.000     0.000  0.0000  0.0000  1.0000
 

 ---------------------------------------------------------------------------------

 1\1\GINC-MNODE009\FOpt\UB3LYP\6-31G(d,p)\B2H8N2\MARIAHARRIS\03-Jul-202
 0\0\\#opt ub3lyp/6-31G(d,p) geom(modredundant, gic) scf=(maxcycles=102
 4)\\something title\\0,1\N,2.3412498918,0.4752426885,0.2436531965\B,2.
 1938401971,-0.7469672177,0.8789452354\N,-0.1057158862,-0.9457951376,-1
 .0137283932\B,0.3263337288,-1.6783991924,0.1495447286\H,-0.3207617595,
 -1.4184931444,-1.877235968\H,2.6011287887,-0.9829865969,1.9706293141\H
 ,1.7901665463,-1.657888363,0.2146265891\H,1.9304393807,0.625325637,-0.
 6690160514\H,2.7614288991,1.2875882675,0.6664139821\H,-0.5769274785,-0
 .058705209,-0.9277934497\H,0.1045280628,-1.2014261056,1.2266075851\H,0
 .386427629,-2.8752446264,0.0907502315\\Version=EM64L-G16RevA.03\State=
 1-A\HF=-164.075772\S2=0.\S2-1=0.\S2A=0.\RMSD=2.810e-09\RMSF=4.321e-03\
 Dipole=0.1788412,1.0273147,-0.581791\Quadrupole=-0.4509159,0.6298586,-
 0.1789427,0.3967215,1.8616401,0.8987054\PG=C01 [X(B2H8N2)]\\@


 THE ONLY EXISTING THINGS ARE ATOMS AND EMPTY SPACE;
 ALL ELSE IS MERE OPINION. -- DEMOCRITUS OF ABDERA D. 370 B.C.
 EXPERIMENTS ARE THE ONLY MEANS OF KNOWLEDGE AT OUR DISPOSAL
 THE REST IS POETRY, IMAGINATION. -- MAX PLANCK
 Job cpu time:       0 days  0 hours 28 minutes 26.8 seconds.
 Elapsed time:       0 days  0 hours  7 minutes 19.3 seconds.
 File lengths (MBytes):  RWF=     15 Int=      0 D2E=      0 Chk=      3 Scr=      1
 Normal termination of Gaussian 16 at Fri Jul  3 18:52:51 2020.
