 Entering Gaussian System, Link 0=/opt/gaussian/g16/legacy/g16/g16
 Initial command:
 /opt/gaussian/g16/legacy/g16/l1.exe "/scratch/1311839/Gau-8878.inp" -scrdir="/scratch/1311839/"
 Entering Link 1 = /opt/gaussian/g16/legacy/g16/l1.exe PID=      8894.
  
 Copyright (c) 1988,1990,1992,1993,1995,1998,2003,2009,2016,
            Gaussian, Inc.  All Rights Reserved.
  
 This is part of the Gaussian(R) 16 program.  It is based on
 the Gaussian(R) 09 system (copyright 2009, Gaussian, Inc.),
 the Gaussian(R) 03 system (copyright 2003, Gaussian, Inc.),
 the Gaussian(R) 98 system (copyright 1998, Gaussian, Inc.),
 the Gaussian(R) 94 system (copyright 1995, Gaussian, Inc.),
 the Gaussian 92(TM) system (copyright 1992, Gaussian, Inc.),
 the Gaussian 90(TM) system (copyright 1990, Gaussian, Inc.),
 the Gaussian 88(TM) system (copyright 1988, Gaussian, Inc.),
 the Gaussian 86(TM) system (copyright 1986, Carnegie Mellon
 University), and the Gaussian 82(TM) system (copyright 1983,
 Carnegie Mellon University). Gaussian is a federally registered
 trademark of Gaussian, Inc.
  
 This software contains proprietary and confidential information,
 including trade secrets, belonging to Gaussian, Inc.
  
 This software is provided under written license and may be
 used, copied, transmitted, or stored only in accord with that
 written license.
  
 The following legend is applicable only to US Government
 contracts under FAR:
  
                    RESTRICTED RIGHTS LEGEND
  
 Use, reproduction and disclosure by the US Government is
 subject to restrictions as set forth in subparagraphs (a)
 and (c) of the Commercial Computer Software - Restricted
 Rights clause in FAR 52.227-19.
  
 Gaussian, Inc.
 340 Quinnipiac St., Bldg. 40, Wallingford CT 06492
  
  
 ---------------------------------------------------------------
 Warning -- This program may not be used in any manner that
 competes with the business of Gaussian, Inc. or will provide
 assistance to any competitor of Gaussian, Inc.  The licensee
 of this program is prohibited from giving any competitor of
 Gaussian, Inc. access to this program.  By using this program,
 the user acknowledges that Gaussian, Inc. is engaged in the
 business of creating and licensing software in the field of
 computational chemistry and represents and warrants to the
 licensee that it is not a competitor of Gaussian, Inc. and that
 it will not use this program in any manner prohibited above.
 ---------------------------------------------------------------
  

 Cite this work as:
 Gaussian 16, Revision A.03,
 M. J. Frisch, G. W. Trucks, H. B. Schlegel, G. E. Scuseria, 
 M. A. Robb, J. R. Cheeseman, G. Scalmani, V. Barone, 
 G. A. Petersson, H. Nakatsuji, X. Li, M. Caricato, A. V. Marenich, 
 J. Bloino, B. G. Janesko, R. Gomperts, B. Mennucci, H. P. Hratchian, 
 J. V. Ortiz, A. F. Izmaylov, J. L. Sonnenberg, D. Williams-Young, 
 F. Ding, F. Lipparini, F. Egidi, J. Goings, B. Peng, A. Petrone, 
 T. Henderson, D. Ranasinghe, V. G. Zakrzewski, J. Gao, N. Rega, 
 G. Zheng, W. Liang, M. Hada, M. Ehara, K. Toyota, R. Fukuda, 
 J. Hasegawa, M. Ishida, T. Nakajima, Y. Honda, O. Kitao, H. Nakai, 
 T. Vreven, K. Throssell, J. A. Montgomery, Jr., J. E. Peralta, 
 F. Ogliaro, M. J. Bearpark, J. J. Heyd, E. N. Brothers, K. N. Kudin, 
 V. N. Staroverov, T. A. Keith, R. Kobayashi, J. Normand, 
 K. Raghavachari, A. P. Rendell, J. C. Burant, S. S. Iyengar, 
 J. Tomasi, M. Cossi, J. M. Millam, M. Klene, C. Adamo, R. Cammi, 
 J. W. Ochterski, R. L. Martin, K. Morokuma, O. Farkas, 
 J. B. Foresman, and D. J. Fox, Gaussian, Inc., Wallingford CT, 2016.
 
 ******************************************
 Gaussian 16:  EM64L-G16RevA.03 25-Dec-2016
                 3-Jul-2020 
 ******************************************
 %mem=16GB
 %nprocshared=4
 Will use up to    4 processors via shared memory.
 ------------------------------------------------
 #opt freq ub3lyp/6-31G(d,p) scf=(maxcycles=1024)
 ------------------------------------------------
 1/18=20,19=15,26=3,38=1/1,3;
 2/9=110,12=2,17=6,18=5,40=1/2;
 3/5=1,6=6,7=101,11=2,25=1,30=1,71=1,74=-5,116=2/1,2,3;
 4//1;
 5/5=2,7=1024,38=5/2;
 6/7=2,8=2,9=2,10=2,28=1/1;
 7//1,2,3,16;
 1/18=20,19=15,26=3/3(2);
 2/9=110/2;
 99//99;
 2/9=110/2;
 3/5=1,6=6,7=101,11=2,25=1,30=1,71=1,74=-5,116=2/1,2,3;
 4/5=5,16=3,69=1/1;
 5/5=2,7=1024,38=5/2;
 7//1,2,3,16;
 1/18=20,19=15,26=3/3(-5);
 2/9=110/2;
 6/7=2,8=2,9=2,10=2,19=2,28=1/1;
 99/9=1/99;
 ---------------
 something title
 ---------------
 Symbolic Z-matrix:
 Charge =  0 Multiplicity = 1
 N                    -1.66195  -0.54983  -0.03819 
 B                    -0.91796   0.67349  -0.03059 
 N                     1.66195  -0.54983   0.03819 
 B                     0.91796   0.67349   0.03059 
 H                     2.61836  -0.57967  -0.27179 
 H                    -1.49079   1.70952   0.111 
 H                    -0.05446   0.80629  -0.97812 
 H                    -1.26666  -1.46477  -0.23159 
 H                    -2.61836  -0.57967   0.2718 
 H                     1.26666  -1.46477   0.23159 
 H                     0.05446   0.80629   0.97812 
 H                     1.49079   1.70952  -0.111 
 

 GradGradGradGradGradGradGradGradGradGradGradGradGradGradGradGradGradGrad
 Berny optimization.
 Initialization pass.
                           ----------------------------
                           !    Initial Parameters    !
                           ! (Angstroms and Degrees)  !
 --------------------------                            --------------------------
 ! Name  Definition              Value          Derivative Info.                !
 --------------------------------------------------------------------------------
 ! R1    R(1,2)                  1.4318         estimate D2E/DX2                !
 ! R2    R(1,8)                  1.0153         estimate D2E/DX2                !
 ! R3    R(1,9)                  1.0058         estimate D2E/DX2                !
 ! R4    R(2,4)                  1.8369         estimate D2E/DX2                !
 ! R5    R(2,6)                  1.1923         estimate D2E/DX2                !
 ! R6    R(2,7)                  1.2888         estimate D2E/DX2                !
 ! R7    R(2,11)                 1.4074         estimate D2E/DX2                !
 ! R8    R(3,4)                  1.4318         estimate D2E/DX2                !
 ! R9    R(3,5)                  1.0058         estimate D2E/DX2                !
 ! R10   R(3,10)                 1.0153         estimate D2E/DX2                !
 ! R11   R(4,7)                  1.4074         estimate D2E/DX2                !
 ! R12   R(4,11)                 1.2888         estimate D2E/DX2                !
 ! R13   R(4,12)                 1.1923         estimate D2E/DX2                !
 ! A1    A(2,1,8)              124.6566         estimate D2E/DX2                !
 ! A2    A(2,1,9)              121.1842         estimate D2E/DX2                !
 ! A3    A(8,1,9)              113.7149         estimate D2E/DX2                !
 ! A4    A(1,2,4)              121.2989         estimate D2E/DX2                !
 ! A5    A(1,2,6)              119.5641         estimate D2E/DX2                !
 ! A6    A(1,2,7)              115.6116         estimate D2E/DX2                !
 ! A7    A(1,2,11)             116.324          estimate D2E/DX2                !
 ! A8    A(4,2,6)              118.4392         estimate D2E/DX2                !
 ! A9    A(6,2,7)              108.6427         estimate D2E/DX2                !
 ! A10   A(6,2,11)              99.4887         estimate D2E/DX2                !
 ! A11   A(7,2,11)              93.1117         estimate D2E/DX2                !
 ! A12   A(4,3,5)              121.1844         estimate D2E/DX2                !
 ! A13   A(4,3,10)             124.6566         estimate D2E/DX2                !
 ! A14   A(5,3,10)             113.7148         estimate D2E/DX2                !
 ! A15   A(2,4,3)              121.2989         estimate D2E/DX2                !
 ! A16   A(2,4,12)             118.4392         estimate D2E/DX2                !
 ! A17   A(3,4,7)              116.324          estimate D2E/DX2                !
 ! A18   A(3,4,11)             115.6116         estimate D2E/DX2                !
 ! A19   A(3,4,12)             119.5641         estimate D2E/DX2                !
 ! A20   A(7,4,11)              93.1117         estimate D2E/DX2                !
 ! A21   A(7,4,12)              99.4887         estimate D2E/DX2                !
 ! A22   A(11,4,12)            108.6427         estimate D2E/DX2                !
 ! D1    D(8,1,2,4)            -15.2231         estimate D2E/DX2                !
 ! D2    D(8,1,2,6)            174.4989         estimate D2E/DX2                !
 ! D3    D(8,1,2,7)             41.6958         estimate D2E/DX2                !
 ! D4    D(8,1,2,11)           -66.022          estimate D2E/DX2                !
 ! D5    D(9,1,2,4)            156.6382         estimate D2E/DX2                !
 ! D6    D(9,1,2,6)            -13.6398         estimate D2E/DX2                !
 ! D7    D(9,1,2,7)           -146.443          estimate D2E/DX2                !
 ! D8    D(9,1,2,11)           105.8392         estimate D2E/DX2                !
 ! D9    D(1,2,4,3)              1.6095         estimate D2E/DX2                !
 ! D10   D(1,2,4,12)           171.9937         estimate D2E/DX2                !
 ! D11   D(6,2,4,3)            171.9937         estimate D2E/DX2                !
 ! D12   D(6,2,4,12)           -17.622          estimate D2E/DX2                !
 ! D13   D(5,3,4,2)            156.6388         estimate D2E/DX2                !
 ! D14   D(5,3,4,7)            105.8398         estimate D2E/DX2                !
 ! D15   D(5,3,4,11)          -146.4423         estimate D2E/DX2                !
 ! D16   D(5,3,4,12)           -13.6392         estimate D2E/DX2                !
 ! D17   D(10,3,4,2)           -15.2231         estimate D2E/DX2                !
 ! D18   D(10,3,4,7)           -66.022          estimate D2E/DX2                !
 ! D19   D(10,3,4,11)           41.6958         estimate D2E/DX2                !
 ! D20   D(10,3,4,12)          174.4989         estimate D2E/DX2                !
 --------------------------------------------------------------------------------
 Trust Radius=3.00D-01 FncErr=1.00D-07 GrdErr=1.00D-06 EigMax=2.50D+02 EigMin=1.00D-04
 Number of steps in this run=     65 maximum allowed number of steps=    100.
 GradGradGradGradGradGradGradGradGradGradGradGradGradGradGradGradGradGrad

                          Input orientation:                          
 ---------------------------------------------------------------------
 Center     Atomic      Atomic             Coordinates (Angstroms)
 Number     Number       Type             X           Y           Z
 ---------------------------------------------------------------------
      1          7           0       -1.661950   -0.549830   -0.038190
      2          5           0       -0.917960    0.673490   -0.030590
      3          7           0        1.661950   -0.549830    0.038190
      4          5           0        0.917960    0.673490    0.030590
      5          1           0        2.618360   -0.579670   -0.271790
      6          1           0       -1.490790    1.709520    0.111000
      7          1           0       -0.054460    0.806290   -0.978120
      8          1           0       -1.266660   -1.464770   -0.231590
      9          1           0       -2.618360   -0.579670    0.271800
     10          1           0        1.266660   -1.464770    0.231590
     11          1           0        0.054460    0.806290    0.978120
     12          1           0        1.490790    1.709520   -0.111000
 ---------------------------------------------------------------------
                    Distance matrix (angstroms):
                    1          2          3          4          5
     1  N    0.000000
     2  B    1.431814   0.000000
     3  N    3.324777   2.856077   0.000000
     4  B    2.856077   1.836939   1.431814   0.000000
     5  H    4.286784   3.759541   1.005832   2.133824   0.000000
     6  H    2.270730   1.192284   3.879399   2.623338   4.719325
     7  H    2.303596   1.288829   2.412055   1.407385   3.092532
     8  H    1.015270   2.175810   3.080041   3.068136   3.984771
     9  H    1.005835   2.133825   4.286784   3.759541   5.264858
    10  H    3.080041   3.068136   1.015270   2.175810   1.692302
    11  H    2.412055   1.407385   2.303596   1.288829   3.171237
    12  H    3.879399   2.623338   2.270730   1.192284   2.556885
                    6          7          8          9         10
     6  H    0.000000
     7  H    2.016197   0.000000
     8  H    3.200581   2.680382   0.000000
     9  H    2.556885   3.171241   1.692305   0.000000
    10  H    4.206446   2.892485   2.575315   3.984771   0.000000
    11  H    1.988849   1.959270   2.892485   3.092530   2.680382
    12  H    2.989833   1.988849   4.206446   4.719326   3.200581
                   11         12
    11  H    0.000000
    12  H    2.016197   0.000000
 Stoichiometry    B2H8N2
 Framework group  C1[X(B2H8N2)]
 Deg. of freedom    30
 Full point group                 C1      NOp   1
 Largest Abelian subgroup         C1      NOp   1
 Largest concise Abelian subgroup C1      NOp   1
                         Standard orientation:                         
 ---------------------------------------------------------------------
 Center     Atomic      Atomic             Coordinates (Angstroms)
 Number     Number       Type             X           Y           Z
 ---------------------------------------------------------------------
      1          7           0       -1.662010   -0.549206   -0.035472
      2          5           0       -0.918009    0.674114   -0.029089
      3          7           0        1.662010   -0.549206    0.035471
      4          5           0        0.918009    0.674114    0.029089
      5          1           0        2.617912   -0.579046   -0.276072
      6          1           0       -1.490606    1.710144    0.113438
      7          1           0       -0.056060    0.806915   -0.978030
      8          1           0       -1.267037   -1.464146   -0.229519
      9          1           0       -2.617912   -0.579046    0.276081
     10          1           0        1.267037   -1.464146    0.229517
     11          1           0        0.056060    0.806914    0.978030
     12          1           0        1.490606    1.710144   -0.113438
 ---------------------------------------------------------------------
 Rotational constants (GHZ):          15.3559492           4.2213626           3.4120140
 Standard basis: 6-31G(d,p) (6D, 7F)
 There are   100 symmetry adapted cartesian basis functions of A   symmetry.
 There are   100 symmetry adapted basis functions of A   symmetry.
   100 basis functions,   168 primitive gaussians,   100 cartesian basis functions
    16 alpha electrons       16 beta electrons
       nuclear repulsion energy       111.8214249840 Hartrees.
 NAtoms=   12 NActive=   12 NUniq=   12 SFac= 1.00D+00 NAtFMM=   60 NAOKFM=F Big=F
 Integral buffers will be    131072 words long.
 Raffenetti 2 integral format.
 Two-electron integral symmetry is turned on.
 One-electron integrals computed using PRISM.
 NBasis=   100 RedAO= T EigKep=  4.22D-03  NBF=   100
 NBsUse=   100 1.00D-06 EigRej= -1.00D+00 NBFU=   100
 ExpMin= 1.27D-01 ExpMax= 4.17D+03 ExpMxC= 6.27D+02 IAcc=3 IRadAn=         5 AccDes= 0.00D+00
 Harris functional with IExCor=  402 and IRadAn=       5 diagonalized for initial guess.
 HarFok:  IExCor=  402 AccDes= 0.00D+00 IRadAn=         5 IDoV= 1 UseB2=F ITyADJ=14
 ICtDFT=  3500011 ScaDFX=  1.000000  1.000000  1.000000  1.000000
 FoFCou: FMM=F IPFlag=           0 FMFlag=      100000 FMFlg1=           0
         NFxFlg=           0 DoJE=T BraDBF=F KetDBF=T FulRan=T
         wScrn=  0.000000 ICntrl=       500 IOpCl=  0 I1Cent=   200000004 NGrid=           0
         NMat0=    1 NMatS0=      1 NMatT0=    0 NMatD0=    1 NMtDS0=    0 NMtDT0=    0
 Petite list used in FoFCou.
 Initial guess <Sx>= 0.0000 <Sy>= 0.0000 <Sz>= 0.0000 <S**2>=-0.0000 S=-0.0000
 Keep R1 and R2 ints in memory in canonical form, NReq=29209894.
 Requested convergence on RMS density matrix=1.00D-08 within1024 cycles.
 Requested convergence on MAX density matrix=1.00D-06.
 Requested convergence on             energy=1.00D-06.
 No special actions if energy rises.
 Integral accuracy reduced to 1.0D-05 until final iterations.
 Initial convergence to 1.0D-05 achieved.  Increase integral accuracy.
 SCF Done:  E(UB3LYP) =  -164.078644543     A.U. after   12 cycles
            NFock= 12  Conv=0.13D-08     -V/T= 2.0101
 <Sx>= 0.0000 <Sy>= 0.0000 <Sz>= 0.0000 <S**2>=-0.0000 S=-0.0000
 <L.S>= 0.000000000000E+00
 Annihilation of the first spin contaminant:
 S**2 before annihilation    -0.0000,   after    -0.0000

 **********************************************************************

            Population analysis using the SCF density.

 **********************************************************************

 Orbital symmetries:
 Alpha Orbitals:
       Occupied  (A) (A) (A) (A) (A) (A) (A) (A) (A) (A) (A) (A)
                 (A) (A) (A) (A)
       Virtual   (A) (A) (A) (A) (A) (A) (A) (A) (A) (A) (A) (A)
                 (A) (A) (A) (A) (A) (A) (A) (A) (A) (A) (A) (A)
                 (A) (A) (A) (A) (A) (A) (A) (A) (A) (A) (A) (A)
                 (A) (A) (A) (A) (A) (A) (A) (A) (A) (A) (A) (A)
                 (A) (A) (A) (A) (A) (A) (A) (A) (A) (A) (A) (A)
                 (A) (A) (A) (A) (A) (A) (A) (A) (A) (A) (A) (A)
                 (A) (A) (A) (A) (A) (A) (A) (A) (A) (A) (A) (A)
 Beta  Orbitals:
       Occupied  (A) (A) (A) (A) (A) (A) (A) (A) (A) (A) (A) (A)
                 (A) (A) (A) (A)
       Virtual   (A) (A) (A) (A) (A) (A) (A) (A) (A) (A) (A) (A)
                 (A) (A) (A) (A) (A) (A) (A) (A) (A) (A) (A) (A)
                 (A) (A) (A) (A) (A) (A) (A) (A) (A) (A) (A) (A)
                 (A) (A) (A) (A) (A) (A) (A) (A) (A) (A) (A) (A)
                 (A) (A) (A) (A) (A) (A) (A) (A) (A) (A) (A) (A)
                 (A) (A) (A) (A) (A) (A) (A) (A) (A) (A) (A) (A)
                 (A) (A) (A) (A) (A) (A) (A) (A) (A) (A) (A) (A)
 The electronic state is 1-A.
 Alpha  occ. eigenvalues --  -14.30565 -14.30565  -6.75095  -6.75078  -0.84469
 Alpha  occ. eigenvalues --   -0.83538  -0.61455  -0.49529  -0.48918  -0.46849
 Alpha  occ. eigenvalues --   -0.43339  -0.39389  -0.34472  -0.33334  -0.26546
 Alpha  occ. eigenvalues --   -0.22135
 Alpha virt. eigenvalues --    0.04982   0.05841   0.10973   0.11855   0.13992
 Alpha virt. eigenvalues --    0.16396   0.18332   0.21008   0.24054   0.27112
 Alpha virt. eigenvalues --    0.29062   0.36283   0.39759   0.44156   0.48108
 Alpha virt. eigenvalues --    0.52309   0.53319   0.59680   0.67087   0.70359
 Alpha virt. eigenvalues --    0.73807   0.75994   0.77952   0.79229   0.82454
 Alpha virt. eigenvalues --    0.85472   0.85760   0.87408   0.90264   0.92935
 Alpha virt. eigenvalues --    0.95316   0.96983   1.10992   1.12145   1.18256
 Alpha virt. eigenvalues --    1.22856   1.32293   1.35618   1.40106   1.45079
 Alpha virt. eigenvalues --    1.46758   1.54418   1.59613   1.62077   1.68122
 Alpha virt. eigenvalues --    1.81659   1.84055   1.86342   2.02822   2.02976
 Alpha virt. eigenvalues --    2.09198   2.09783   2.15802   2.18461   2.21776
 Alpha virt. eigenvalues --    2.26808   2.34891   2.39863   2.42388   2.49153
 Alpha virt. eigenvalues --    2.53643   2.54870   2.57168   2.60957   2.62150
 Alpha virt. eigenvalues --    2.65488   2.69277   2.73213   2.80964   2.81426
 Alpha virt. eigenvalues --    2.95615   2.96515   3.01870   3.06175   3.21306
 Alpha virt. eigenvalues --    3.21751   3.30064   3.34911   3.52726   3.60697
 Alpha virt. eigenvalues --    3.62160   3.80554   4.25556   4.26395
  Beta  occ. eigenvalues --  -14.30565 -14.30565  -6.75095  -6.75078  -0.84469
  Beta  occ. eigenvalues --   -0.83538  -0.61455  -0.49529  -0.48918  -0.46849
  Beta  occ. eigenvalues --   -0.43339  -0.39389  -0.34472  -0.33334  -0.26546
  Beta  occ. eigenvalues --   -0.22135
  Beta virt. eigenvalues --    0.04982   0.05841   0.10973   0.11855   0.13992
  Beta virt. eigenvalues --    0.16396   0.18332   0.21008   0.24054   0.27112
  Beta virt. eigenvalues --    0.29062   0.36283   0.39759   0.44156   0.48108
  Beta virt. eigenvalues --    0.52309   0.53319   0.59680   0.67087   0.70359
  Beta virt. eigenvalues --    0.73807   0.75994   0.77952   0.79229   0.82454
  Beta virt. eigenvalues --    0.85472   0.85760   0.87408   0.90264   0.92935
  Beta virt. eigenvalues --    0.95316   0.96983   1.10992   1.12145   1.18256
  Beta virt. eigenvalues --    1.22856   1.32293   1.35618   1.40106   1.45079
  Beta virt. eigenvalues --    1.46758   1.54418   1.59613   1.62077   1.68122
  Beta virt. eigenvalues --    1.81659   1.84055   1.86342   2.02822   2.02976
  Beta virt. eigenvalues --    2.09198   2.09783   2.15802   2.18461   2.21776
  Beta virt. eigenvalues --    2.26808   2.34891   2.39863   2.42388   2.49153
  Beta virt. eigenvalues --    2.53643   2.54870   2.57168   2.60957   2.62150
  Beta virt. eigenvalues --    2.65488   2.69277   2.73213   2.80964   2.81426
  Beta virt. eigenvalues --    2.95615   2.96515   3.01870   3.06175   3.21306
  Beta virt. eigenvalues --    3.21751   3.30064   3.34911   3.52726   3.60697
  Beta virt. eigenvalues --    3.62160   3.80554   4.25556   4.26395
          Condensed to atoms (all electrons):
               1          2          3          4          5          6
     1  N    6.544956   0.455922  -0.003261  -0.009830   0.000006  -0.025251
     2  B    0.455922   3.506381  -0.009830   0.145647   0.001234   0.403019
     3  N   -0.003261  -0.009830   6.544955   0.455922   0.365364   0.001343
     4  B   -0.009830   0.145647   0.455922   3.506381  -0.031537  -0.023501
     5  H    0.000006   0.001234   0.365364  -0.031537   0.446036  -0.000034
     6  H   -0.025251   0.403019   0.001343  -0.023501  -0.000034   0.726602
     7  H   -0.022260   0.249933  -0.032984   0.135298   0.000043  -0.011941
     8  H    0.355008  -0.039068   0.002607  -0.004147  -0.000054   0.003560
     9  H    0.365364  -0.031537   0.000006   0.001234  -0.000000  -0.003332
    10  H    0.002607  -0.004147   0.355008  -0.039068  -0.030372   0.000032
    11  H   -0.032984   0.135298  -0.022260   0.249933   0.001951  -0.007828
    12  H    0.001343  -0.023501  -0.025252   0.403019  -0.003332  -0.000258
               7          8          9         10         11         12
     1  N   -0.022260   0.355008   0.365364   0.002607  -0.032984   0.001343
     2  B    0.249933  -0.039068  -0.031537  -0.004147   0.135298  -0.023501
     3  N   -0.032984   0.002607   0.000006   0.355008  -0.022260  -0.025252
     4  B    0.135298  -0.004147   0.001234  -0.039068   0.249933   0.403019
     5  H    0.000043  -0.000054  -0.000000  -0.030372   0.001951  -0.003332
     6  H   -0.011941   0.003560  -0.003332   0.000032  -0.007828  -0.000258
     7  H    0.786486  -0.002490   0.001951   0.000514  -0.091597  -0.007828
     8  H   -0.002490   0.474794  -0.030372   0.001803   0.000514   0.000032
     9  H    0.001951  -0.030372   0.446036  -0.000054   0.000043  -0.000034
    10  H    0.000514   0.001803  -0.000054   0.474794  -0.002490   0.003560
    11  H   -0.091597   0.000514   0.000043  -0.002490   0.786487  -0.011941
    12  H   -0.007828   0.000032  -0.000034   0.003560  -0.011941   0.726602
          Atomic-Atomic Spin Densities.
               1          2          3          4          5          6
     1  N    0.000000  -0.000000  -0.000000   0.000000  -0.000000  -0.000000
     2  B   -0.000000   0.000000   0.000000  -0.000000  -0.000000  -0.000000
     3  N   -0.000000   0.000000  -0.000000   0.000000   0.000000  -0.000000
     4  B    0.000000  -0.000000   0.000000   0.000000  -0.000000  -0.000000
     5  H   -0.000000  -0.000000   0.000000  -0.000000   0.000000   0.000000
     6  H   -0.000000  -0.000000  -0.000000  -0.000000   0.000000  -0.000000
     7  H   -0.000000   0.000000  -0.000000  -0.000000   0.000000  -0.000000
     8  H    0.000000  -0.000000  -0.000000   0.000000   0.000000   0.000000
     9  H    0.000000  -0.000000   0.000000  -0.000000  -0.000000   0.000000
    10  H   -0.000000  -0.000000   0.000000  -0.000000  -0.000000   0.000000
    11  H   -0.000000  -0.000000  -0.000000  -0.000000  -0.000000  -0.000000
    12  H    0.000000  -0.000000  -0.000000  -0.000000   0.000000  -0.000000
               7          8          9         10         11         12
     1  N   -0.000000   0.000000   0.000000  -0.000000  -0.000000   0.000000
     2  B    0.000000  -0.000000  -0.000000  -0.000000  -0.000000  -0.000000
     3  N   -0.000000  -0.000000   0.000000   0.000000  -0.000000  -0.000000
     4  B   -0.000000   0.000000  -0.000000  -0.000000  -0.000000  -0.000000
     5  H    0.000000   0.000000  -0.000000  -0.000000  -0.000000   0.000000
     6  H   -0.000000   0.000000   0.000000   0.000000  -0.000000  -0.000000
     7  H   -0.000000   0.000000  -0.000000  -0.000000   0.000000  -0.000000
     8  H    0.000000   0.000000  -0.000000  -0.000000  -0.000000  -0.000000
     9  H   -0.000000  -0.000000   0.000000   0.000000   0.000000   0.000000
    10  H   -0.000000  -0.000000   0.000000   0.000000   0.000000   0.000000
    11  H    0.000000  -0.000000   0.000000   0.000000  -0.000000   0.000000
    12  H   -0.000000  -0.000000   0.000000   0.000000   0.000000   0.000000
 Mulliken charges and spin densities:
               1          2
     1  N   -0.631619   0.000000
     2  B    0.210648   0.000000
     3  N   -0.631619  -0.000000
     4  B    0.210648  -0.000000
     5  H    0.250694   0.000000
     6  H   -0.062412  -0.000000
     7  H   -0.005124  -0.000000
     8  H    0.237812   0.000000
     9  H    0.250694   0.000000
    10  H    0.237812   0.000000
    11  H   -0.005124  -0.000000
    12  H   -0.062412   0.000000
 Sum of Mulliken charges =  -0.00000   0.00000
 Mulliken charges and spin densities with hydrogens summed into heavy atoms:
               1          2
     1  N   -0.143113   0.000000
     2  B    0.143113   0.000000
     3  N   -0.143113  -0.000000
     4  B    0.143113  -0.000000
 Electronic spatial extent (au):  <R**2>=            384.7745
 Charge=             -0.0000 electrons
 Dipole moment (field-independent basis, Debye):
    X=              0.0000    Y=             -2.3216    Z=              0.0000  Tot=              2.3216
 Quadrupole moment (field-independent basis, Debye-Ang):
   XX=            -23.3165   YY=            -25.6352   ZZ=            -28.7715
   XY=             -0.0000   XZ=             -2.2195   YZ=             -0.0000
 Traceless Quadrupole moment (field-independent basis, Debye-Ang):
   XX=              2.5912   YY=              0.2726   ZZ=             -2.8638
   XY=             -0.0000   XZ=             -2.2195   YZ=             -0.0000
 Octapole moment (field-independent basis, Debye-Ang**2):
  XXX=              0.0001  YYY=            -21.2472  ZZZ=              0.0000  XYY=              0.0000
  XXY=            -11.8180  XXZ=              0.0001  XZZ=             -0.0000  YZZ=             -2.3464
  YYZ=             -0.0000  XYZ=              0.4228
 Hexadecapole moment (field-independent basis, Debye-Ang**3):
 XXXX=           -270.1658 YYYY=           -130.8143 ZZZZ=            -40.3801 XXXY=             -0.0000
 XXXZ=            -20.6410 YYYX=             -0.0000 YYYZ=             -0.0000 ZZZX=             -1.8451
 ZZZY=             -0.0000 XXYY=            -77.1203 XXZZ=            -69.5732 YYZZ=            -30.1405
 XXYZ=             -0.0001 YYXZ=              0.8881 ZZXY=              0.0000
 N-N= 1.118214249840D+02 E-N=-6.039710777106D+02  KE= 1.624403237491D+02
                          Isotropic Fermi Contact Couplings
        Atom                 a.u.       MegaHertz       Gauss      10(-4) cm-1
     1  N(14)              0.00000       0.00000       0.00000       0.00000
     2  B(11)              0.00000       0.00000       0.00000       0.00000
     3  N(14)             -0.00000      -0.00000      -0.00000      -0.00000
     4  B(11)              0.00000       0.00000       0.00000       0.00000
     5  H(1)               0.00000       0.00000       0.00000       0.00000
     6  H(1)              -0.00000      -0.00000      -0.00000      -0.00000
     7  H(1)              -0.00000      -0.00000      -0.00000      -0.00000
     8  H(1)               0.00000       0.00000       0.00000       0.00000
     9  H(1)               0.00000       0.00000       0.00000       0.00000
    10  H(1)               0.00000       0.00000       0.00000       0.00000
    11  H(1)              -0.00000      -0.00000      -0.00000      -0.00000
    12  H(1)              -0.00000      -0.00000      -0.00000      -0.00000
 --------------------------------------------------------
       Center         ----  Spin Dipole Couplings  ----
                      3XX-RR        3YY-RR        3ZZ-RR
 --------------------------------------------------------
     1   Atom        0.000000      0.000000      0.000000
     2   Atom        0.000000      0.000000      0.000000
     3   Atom        0.000000      0.000000      0.000000
     4   Atom        0.000000      0.000000      0.000000
     5   Atom        0.000000      0.000000      0.000000
     6   Atom        0.000000      0.000000      0.000000
     7   Atom        0.000000      0.000000      0.000000
     8   Atom        0.000000      0.000000      0.000000
     9   Atom        0.000000      0.000000      0.000000
    10   Atom        0.000000      0.000000      0.000000
    11   Atom        0.000000      0.000000      0.000000
    12   Atom        0.000000      0.000000      0.000000
 --------------------------------------------------------
                        XY            XZ            YZ
 --------------------------------------------------------
     1   Atom        0.000000      0.000000      0.000000
     2   Atom        0.000000      0.000000      0.000000
     3   Atom        0.000000      0.000000      0.000000
     4   Atom        0.000000      0.000000      0.000000
     5   Atom        0.000000      0.000000      0.000000
     6   Atom        0.000000      0.000000      0.000000
     7   Atom        0.000000      0.000000      0.000000
     8   Atom        0.000000      0.000000      0.000000
     9   Atom        0.000000      0.000000      0.000000
    10   Atom        0.000000      0.000000      0.000000
    11   Atom        0.000000      0.000000      0.000000
    12   Atom        0.000000      0.000000      0.000000
 --------------------------------------------------------


 ---------------------------------------------------------------------------------
              Anisotropic Spin Dipole Couplings in Principal Axis System
 ---------------------------------------------------------------------------------

       Atom             a.u.   MegaHertz   Gauss  10(-4) cm-1        Axes

              Baa     0.0000     0.000     0.000     0.000  1.0000  0.0000  0.0000
     1 N(14)  Bbb     0.0000     0.000     0.000     0.000 -0.0000  1.0000  0.0000
              Bcc     0.0000     0.000     0.000     0.000  0.0000  0.0000  1.0000
 
              Baa     0.0000     0.000     0.000     0.000  1.0000  0.0000  0.0000
     2 B(11)  Bbb     0.0000     0.000     0.000     0.000 -0.0000  1.0000  0.0000
              Bcc     0.0000     0.000     0.000     0.000  0.0000  0.0000  1.0000
 
              Baa     0.0000     0.000     0.000     0.000  1.0000  0.0000  0.0000
     3 N(14)  Bbb     0.0000     0.000     0.000     0.000 -0.0000  1.0000  0.0000
              Bcc     0.0000     0.000     0.000     0.000  0.0000  0.0000  1.0000
 
              Baa     0.0000     0.000     0.000     0.000  1.0000  0.0000  0.0000
     4 B(11)  Bbb     0.0000     0.000     0.000     0.000 -0.0000  1.0000  0.0000
              Bcc     0.0000     0.000     0.000     0.000  0.0000  0.0000  1.0000
 
              Baa     0.0000     0.000     0.000     0.000  1.0000  0.0000  0.0000
     5 H(1)   Bbb     0.0000     0.000     0.000     0.000 -0.0000  1.0000  0.0000
              Bcc     0.0000     0.000     0.000     0.000  0.0000  0.0000  1.0000
 
              Baa     0.0000     0.000     0.000     0.000  1.0000  0.0000  0.0000
     6 H(1)   Bbb     0.0000     0.000     0.000     0.000 -0.0000  1.0000  0.0000
              Bcc     0.0000     0.000     0.000     0.000  0.0000  0.0000  1.0000
 
              Baa     0.0000     0.000     0.000     0.000  1.0000  0.0000  0.0000
     7 H(1)   Bbb     0.0000     0.000     0.000     0.000 -0.0000  1.0000  0.0000
              Bcc     0.0000     0.000     0.000     0.000  0.0000  0.0000  1.0000
 
              Baa     0.0000     0.000     0.000     0.000  1.0000  0.0000  0.0000
     8 H(1)   Bbb     0.0000     0.000     0.000     0.000 -0.0000  1.0000  0.0000
              Bcc     0.0000     0.000     0.000     0.000  0.0000  0.0000  1.0000
 
              Baa     0.0000     0.000     0.000     0.000  1.0000  0.0000  0.0000
     9 H(1)   Bbb     0.0000     0.000     0.000     0.000 -0.0000  1.0000  0.0000
              Bcc     0.0000     0.000     0.000     0.000  0.0000  0.0000  1.0000
 
              Baa     0.0000     0.000     0.000     0.000  1.0000  0.0000  0.0000
    10 H(1)   Bbb     0.0000     0.000     0.000     0.000 -0.0000  1.0000  0.0000
              Bcc     0.0000     0.000     0.000     0.000  0.0000  0.0000  1.0000
 
              Baa     0.0000     0.000     0.000     0.000  1.0000  0.0000  0.0000
    11 H(1)   Bbb     0.0000     0.000     0.000     0.000 -0.0000  1.0000  0.0000
              Bcc     0.0000     0.000     0.000     0.000  0.0000  0.0000  1.0000
 
              Baa     0.0000     0.000     0.000     0.000  1.0000  0.0000  0.0000
    12 H(1)   Bbb     0.0000     0.000     0.000     0.000 -0.0000  1.0000  0.0000
              Bcc     0.0000     0.000     0.000     0.000  0.0000  0.0000  1.0000
 

 ---------------------------------------------------------------------------------

 Calling FoFJK, ICntrl=      2127 FMM=F ISym2X=0 I1Cent= 0 IOpClX= 1 NMat=1 NMatS=1 NMatT=0.
 ***** Axes restored to original set *****
 -------------------------------------------------------------------
 Center     Atomic                   Forces (Hartrees/Bohr)
 Number     Number              X              Y              Z
 -------------------------------------------------------------------
      1        7           0.003291719   -0.006352002   -0.001385206
      2        5          -0.000033910   -0.000326508   -0.000003114
      3        7          -0.003294357   -0.006352050    0.001385981
      4        5           0.000034000   -0.000326553    0.000003196
      5        1          -0.000149586   -0.000230847    0.000145441
      6        1          -0.000229408    0.000398278    0.000025848
      7        1          -0.000164847   -0.000027655    0.000185259
      8        1          -0.003098394    0.006538768    0.001471526
      9        1           0.000152236   -0.000230912   -0.000146370
     10        1           0.003098311    0.006538817   -0.001471439
     11        1           0.000164811   -0.000027603   -0.000185287
     12        1           0.000229425    0.000398267   -0.000025835
 -------------------------------------------------------------------
 Cartesian Forces:  Max     0.006538817 RMS     0.002450764

 GradGradGradGradGradGradGradGradGradGradGradGradGradGradGradGradGradGrad
 Berny optimization.
 FormGI is forming the generalized inverse of G from B-inverse, IUseBI=4.
 Internal  Forces:  Max     0.007379379 RMS     0.001418112
 Search for a local minimum.
 Step number   1 out of a maximum of   65
 All quantities printed in internal units (Hartrees-Bohrs-Radians)
 Mixed Optimization -- RFO/linear search
 Second derivative matrix not updated -- first step.
 ITU=  0
     Eigenvalues ---    0.01800   0.01800   0.01829   0.01829   0.03005
     Eigenvalues ---    0.03567   0.03627   0.08926   0.11170   0.13050
     Eigenvalues ---    0.14457   0.15468   0.15876   0.15911   0.16000
     Eigenvalues ---    0.16000   0.16000   0.16000   0.16204   0.17335
     Eigenvalues ---    0.18843   0.21245   0.25237   0.25237   0.40730
     Eigenvalues ---    0.40730   0.45101   0.45101   0.46677   0.46677
 RFO step:  Lambda=-2.50186444D-04 EMin= 1.80024563D-02
 Linear search not attempted -- first point.
 Iteration  1 RMS(Cart)=  0.00362447 RMS(Int)=  0.00000458
 Iteration  2 RMS(Cart)=  0.00000507 RMS(Int)=  0.00000080
 Iteration  3 RMS(Cart)=  0.00000000 RMS(Int)=  0.00000080
 Variable       Old X    -DE/DX   Delta X   Delta X   Delta X     New X
                                 (Linear)    (Quad)   (Total)
    R1        2.70574  -0.00014   0.00000  -0.00035  -0.00035   2.70539
    R2        1.91858  -0.00738   0.00000  -0.01635  -0.01635   1.90223
    R3        1.90075  -0.00018   0.00000  -0.00039  -0.00039   1.90036
    R4        3.47131  -0.00012   0.00000  -0.00021  -0.00021   3.47110
    R5        2.25309   0.00046   0.00000   0.00182   0.00182   2.25491
    R6        2.43553  -0.00014   0.00000  -0.00092  -0.00092   2.43462
    R7        2.65957   0.00003   0.00000   0.00001   0.00001   2.65958
    R8        2.70574  -0.00014   0.00000  -0.00035  -0.00035   2.70539
    R9        1.90075  -0.00018   0.00000  -0.00039  -0.00039   1.90036
   R10        1.91858  -0.00738   0.00000  -0.01635  -0.01635   1.90223
   R11        2.65957   0.00003   0.00000   0.00001   0.00001   2.65958
   R12        2.43553  -0.00014   0.00000  -0.00092  -0.00091   2.43462
   R13        2.25309   0.00046   0.00000   0.00182   0.00182   2.25491
    A1        2.17567   0.00017   0.00000   0.00112   0.00112   2.17679
    A2        2.11506   0.00015   0.00000   0.00100   0.00100   2.11606
    A3        1.98470  -0.00032   0.00000  -0.00198  -0.00198   1.98272
    A4        2.11706  -0.00048   0.00000  -0.00234  -0.00234   2.11472
    A5        2.08679   0.00019   0.00000   0.00108   0.00108   2.08787
    A6        2.01780  -0.00003   0.00000  -0.00086  -0.00086   2.01695
    A7        2.03024  -0.00002   0.00000   0.00042   0.00042   2.03066
    A8        2.06715   0.00028   0.00000   0.00137   0.00137   2.06852
    A9        1.89617  -0.00011   0.00000  -0.00031  -0.00031   1.89587
   A10        1.73641  -0.00001   0.00000   0.00006   0.00006   1.73646
   A11        1.62511  -0.00008   0.00000  -0.00068  -0.00068   1.62443
   A12        2.11507   0.00015   0.00000   0.00100   0.00100   2.11606
   A13        2.17567   0.00017   0.00000   0.00112   0.00112   2.17679
   A14        1.98470  -0.00032   0.00000  -0.00198  -0.00198   1.98272
   A15        2.11706  -0.00048   0.00000  -0.00234  -0.00234   2.11472
   A16        2.06715   0.00028   0.00000   0.00137   0.00137   2.06852
   A17        2.03024  -0.00002   0.00000   0.00042   0.00042   2.03066
   A18        2.01780  -0.00003   0.00000  -0.00086  -0.00086   2.01695
   A19        2.08679   0.00019   0.00000   0.00108   0.00108   2.08787
   A20        1.62511  -0.00008   0.00000  -0.00068  -0.00068   1.62443
   A21        1.73641  -0.00001   0.00000   0.00006   0.00006   1.73646
   A22        1.89617  -0.00011   0.00000  -0.00031  -0.00031   1.89587
    D1       -0.26569  -0.00001   0.00000   0.00055   0.00055  -0.26515
    D2        3.04558  -0.00003   0.00000  -0.00038  -0.00038   3.04520
    D3        0.72773  -0.00004   0.00000  -0.00011  -0.00011   0.72762
    D4       -1.15230   0.00010   0.00000   0.00107   0.00107  -1.15123
    D5        2.73385   0.00002   0.00000   0.00172   0.00172   2.73557
    D6       -0.23806  -0.00001   0.00000   0.00079   0.00079  -0.23727
    D7       -2.55591  -0.00002   0.00000   0.00106   0.00106  -2.55485
    D8        1.84724   0.00012   0.00000   0.00224   0.00224   1.84948
    D9        0.02809  -0.00006   0.00000  -0.00209  -0.00209   0.02600
   D10        3.00186  -0.00005   0.00000  -0.00120  -0.00120   3.00065
   D11        3.00186  -0.00005   0.00000  -0.00120  -0.00120   3.00066
   D12       -0.30756  -0.00003   0.00000  -0.00031  -0.00031  -0.30787
   D13        2.73386   0.00002   0.00000   0.00172   0.00171   2.73558
   D14        1.84725   0.00012   0.00000   0.00224   0.00224   1.84949
   D15       -2.55590  -0.00002   0.00000   0.00106   0.00106  -2.55484
   D16       -0.23805  -0.00001   0.00000   0.00079   0.00079  -0.23726
   D17       -0.26569  -0.00001   0.00000   0.00055   0.00055  -0.26515
   D18       -1.15230   0.00010   0.00000   0.00107   0.00107  -1.15123
   D19        0.72773  -0.00004   0.00000  -0.00011  -0.00011   0.72762
   D20        3.04558  -0.00003   0.00000  -0.00038  -0.00038   3.04520
         Item               Value     Threshold  Converged?
 Maximum Force            0.007379     0.000450     NO 
 RMS     Force            0.001418     0.000300     NO 
 Maximum Displacement     0.012213     0.001800     NO 
 RMS     Displacement     0.003624     0.001200     NO 
 Predicted change in Energy=-1.251701D-04
 GradGradGradGradGradGradGradGradGradGradGradGradGradGradGradGradGradGrad

                          Input orientation:                          
 ---------------------------------------------------------------------
 Center     Atomic      Atomic             Coordinates (Angstroms)
 Number     Number       Type             X           Y           Z
 ---------------------------------------------------------------------
      1          7           0       -1.658913   -0.551757   -0.038463
      2          5           0       -0.917920    0.673161   -0.030097
      3          7           0        1.658912   -0.551757    0.038463
      4          5           0        0.917919    0.673161    0.030098
      5          1           0        2.615362   -0.584862   -0.270397
      6          1           0       -1.492574    1.709232    0.111907
      7          1           0       -0.055347    0.807563   -0.977588
      8          1           0       -1.265879   -1.458307   -0.230734
      9          1           0       -2.615360   -0.584862    0.270405
     10          1           0        1.265878   -1.458307    0.230735
     11          1           0        0.055347    0.807563    0.977588
     12          1           0        1.492574    1.709232   -0.111907
 ---------------------------------------------------------------------
                    Distance matrix (angstroms):
                    1          2          3          4          5
     1  N    0.000000
     2  B    1.431630   0.000000
     3  N    3.318717   2.853978   0.000000
     4  B    2.853978   1.836826   1.431630   0.000000
     5  H    4.280691   3.758251   1.005628   2.134064   0.000000
     6  H    2.272081   1.193246   3.879347   2.624998   4.720610
     7  H    2.302418   1.288345   2.412218   1.407388   3.093809
     8  H    1.006616   2.168983   3.073874   3.062705   3.978507
     9  H    1.005628   2.134064   4.280689   3.758249   5.258605
    10  H    3.073874   3.062705   1.006616   2.168983   1.683790
    11  H    2.412218   1.407388   2.302418   1.288345   3.170173
    12  H    3.879347   2.624998   2.272081   1.193246   2.559031
                    6          7          8          9         10
     6  H    0.000000
     7  H    2.016340   0.000000
     8  H    3.194072   2.675321   0.000000
     9  H    2.559031   3.170174   1.683789   0.000000
    10  H    4.201962   2.887879   2.573470   3.978504   0.000000
    11  H    1.989590   1.958307   2.887879   3.093806   2.675321
    12  H    2.993526   1.989590   4.201962   4.720609   3.194072
                   11         12
    11  H    0.000000
    12  H    2.016340   0.000000
 Stoichiometry    B2H8N2
 Framework group  C1[X(B2H8N2)]
 Deg. of freedom    30
 Full point group                 C1      NOp   1
 Largest Abelian subgroup         C1      NOp   1
 Largest concise Abelian subgroup C1      NOp   1
                         Standard orientation:                         
 ---------------------------------------------------------------------
 Center     Atomic      Atomic             Coordinates (Angstroms)
 Number     Number       Type             X           Y           Z
 ---------------------------------------------------------------------
      1          7           0       -1.658976   -0.550328   -0.035614
      2          5           0       -0.917970    0.674590   -0.028521
      3          7           0        1.658976   -0.550328    0.035613
      4          5           0        0.917970    0.674590    0.028521
      5          1           0        2.614894   -0.583432   -0.274889
      6          1           0       -1.492379    1.710661    0.114470
      7          1           0       -0.057026    0.808992   -0.977491
      8          1           0       -1.266273   -1.456878   -0.228560
      9          1           0       -2.614892   -0.583433    0.274896
     10          1           0        1.266273   -1.456878    0.228559
     11          1           0        0.057026    0.808992    0.977491
     12          1           0        1.492379    1.710661   -0.114470
 ---------------------------------------------------------------------
 Rotational constants (GHZ):          15.3454965           4.2324251           3.4185236
 Standard basis: 6-31G(d,p) (6D, 7F)
 There are   100 symmetry adapted cartesian basis functions of A   symmetry.
 There are   100 symmetry adapted basis functions of A   symmetry.
   100 basis functions,   168 primitive gaussians,   100 cartesian basis functions
    16 alpha electrons       16 beta electrons
       nuclear repulsion energy       111.9329812474 Hartrees.
 NAtoms=   12 NActive=   12 NUniq=   12 SFac= 1.00D+00 NAtFMM=   60 NAOKFM=F Big=F
 Integral buffers will be    131072 words long.
 Raffenetti 2 integral format.
 Two-electron integral symmetry is turned on.
 One-electron integrals computed using PRISM.
 NBasis=   100 RedAO= T EigKep=  4.21D-03  NBF=   100
 NBsUse=   100 1.00D-06 EigRej= -1.00D+00 NBFU=   100
 Initial guess from the checkpoint file:  "/scratch/1311839/Gau-8894.chk"
 B after Tr=     0.000000   -0.000000    0.000000
         Rot=    1.000000    0.000000   -0.000018   -0.000000 Ang=   0.00 deg.
 Initial guess <Sx>= 0.0000 <Sy>= 0.0000 <Sz>= 0.0000 <S**2>= 0.0000 S= 0.0000
 Keep R1 and R2 ints in memory in canonical form, NReq=29209894.
 Requested convergence on RMS density matrix=1.00D-08 within1024 cycles.
 Requested convergence on MAX density matrix=1.00D-06.
 Requested convergence on             energy=1.00D-06.
 No special actions if energy rises.
 SCF Done:  E(UB3LYP) =  -164.078767212     A.U. after    8 cycles
            NFock=  8  Conv=0.26D-08     -V/T= 2.0099
 <Sx>= 0.0000 <Sy>= 0.0000 <Sz>= 0.0000 <S**2>=-0.0000 S=-0.0000
 <L.S>= 0.000000000000E+00
 Annihilation of the first spin contaminant:
 S**2 before annihilation    -0.0000,   after    -0.0000
 Calling FoFJK, ICntrl=      2127 FMM=F ISym2X=0 I1Cent= 0 IOpClX= 1 NMat=1 NMatS=1 NMatT=0.
 ***** Axes restored to original set *****
 -------------------------------------------------------------------
 Center     Atomic                   Forces (Hartrees/Bohr)
 Number     Number              X              Y              Z
 -------------------------------------------------------------------
      1        7           0.000232123    0.000002677    0.000121439
      2        5          -0.000253786    0.000197566    0.000067939
      3        7          -0.000232074    0.000002610   -0.000121464
      4        5           0.000253857    0.000197602   -0.000067952
      5        1           0.000047373    0.000116325    0.000047343
      6        1          -0.000006468   -0.000018795   -0.000012323
      7        1          -0.000019070   -0.000005745    0.000039321
      8        1           0.000100016   -0.000292005   -0.000086982
      9        1          -0.000047510    0.000116295   -0.000047346
     10        1          -0.000099971   -0.000292006    0.000087010
     11        1           0.000019041   -0.000005735   -0.000039332
     12        1           0.000006469   -0.000018788    0.000012348
 -------------------------------------------------------------------
 Cartesian Forces:  Max     0.000292006 RMS     0.000129111

 GradGradGradGradGradGradGradGradGradGradGradGradGradGradGradGradGradGrad
 Berny optimization.
 Using GEDIIS/GDIIS optimizer.
 FormGI is forming the generalized inverse of G from B-inverse, IUseBI=4.
 Internal  Forces:  Max     0.000395311 RMS     0.000120597
 Search for a local minimum.
 Step number   2 out of a maximum of   65
 All quantities printed in internal units (Hartrees-Bohrs-Radians)
 Mixed Optimization -- En-DIIS/RFO-DIIS
 Update second derivatives using D2CorX and points    1    2
 DE= -1.23D-04 DEPred=-1.25D-04 R= 9.80D-01
 TightC=F SS=  1.41D+00  RLast= 2.46D-02 DXNew= 5.0454D-01 7.3852D-02
 Trust test= 9.80D-01 RLast= 2.46D-02 DXMaxT set to 3.00D-01
 ITU=  1  0
 Use linear search instead of GDIIS.
     Eigenvalues ---    0.01798   0.01800   0.01825   0.01828   0.03001
     Eigenvalues ---    0.03565   0.03626   0.08923   0.11171   0.13049
     Eigenvalues ---    0.14473   0.15471   0.15874   0.15911   0.15954
     Eigenvalues ---    0.16000   0.16000   0.16062   0.16200   0.17288
     Eigenvalues ---    0.18846   0.20669   0.25237   0.25249   0.40730
     Eigenvalues ---    0.40730   0.45101   0.46660   0.46677   0.48034
 RFO step:  Lambda=-3.50137411D-06 EMin= 1.79785555D-02
 Quartic linear search produced a step of -0.02722.
 Iteration  1 RMS(Cart)=  0.00204869 RMS(Int)=  0.00000133
 Iteration  2 RMS(Cart)=  0.00000191 RMS(Int)=  0.00000039
 Iteration  3 RMS(Cart)=  0.00000000 RMS(Int)=  0.00000039
 Variable       Old X    -DE/DX   Delta X   Delta X   Delta X     New X
                                 (Linear)    (Quad)   (Total)
    R1        2.70539   0.00000   0.00001  -0.00001  -0.00000   2.70539
    R2        1.90223   0.00032   0.00045   0.00000   0.00045   1.90268
    R3        1.90036   0.00003   0.00001   0.00004   0.00005   1.90041
    R4        3.47110  -0.00009   0.00001  -0.00026  -0.00026   3.47084
    R5        2.25491  -0.00001  -0.00005   0.00002  -0.00003   2.25488
    R6        2.43462   0.00001   0.00002  -0.00011  -0.00008   2.43454
    R7        2.65958   0.00001  -0.00000  -0.00007  -0.00007   2.65951
    R8        2.70539   0.00000   0.00001  -0.00001  -0.00000   2.70539
    R9        1.90036   0.00003   0.00001   0.00004   0.00005   1.90041
   R10        1.90223   0.00032   0.00045   0.00000   0.00045   1.90268
   R11        2.65958   0.00001  -0.00000  -0.00007  -0.00007   2.65951
   R12        2.43462   0.00001   0.00002  -0.00011  -0.00008   2.43454
   R13        2.25491  -0.00001  -0.00005   0.00002  -0.00003   2.25488
    A1        2.17679   0.00009  -0.00003   0.00069   0.00066   2.17745
    A2        2.11606  -0.00014  -0.00003  -0.00076  -0.00079   2.11528
    A3        1.98272   0.00005   0.00005   0.00031   0.00037   1.98309
    A4        2.11472  -0.00040   0.00006  -0.00196  -0.00189   2.11283
    A5        2.08787   0.00015  -0.00003   0.00078   0.00075   2.08863
    A6        2.01695  -0.00001   0.00002  -0.00034  -0.00031   2.01663
    A7        2.03066  -0.00004  -0.00001  -0.00004  -0.00005   2.03061
    A8        2.06852   0.00025  -0.00004   0.00120   0.00116   2.06969
    A9        1.89587  -0.00008   0.00001  -0.00022  -0.00021   1.89565
   A10        1.73646  -0.00002  -0.00000  -0.00007  -0.00008   1.73639
   A11        1.62443  -0.00004   0.00002  -0.00034  -0.00032   1.62410
   A12        2.11606  -0.00014  -0.00003  -0.00076  -0.00079   2.11528
   A13        2.17679   0.00009  -0.00003   0.00069   0.00066   2.17745
   A14        1.98272   0.00005   0.00005   0.00031   0.00037   1.98309
   A15        2.11472  -0.00040   0.00006  -0.00196  -0.00189   2.11283
   A16        2.06852   0.00025  -0.00004   0.00120   0.00116   2.06969
   A17        2.03066  -0.00004  -0.00001  -0.00004  -0.00005   2.03061
   A18        2.01695  -0.00001   0.00002  -0.00034  -0.00031   2.01663
   A19        2.08787   0.00015  -0.00003   0.00078   0.00075   2.08863
   A20        1.62443  -0.00004   0.00002  -0.00034  -0.00032   1.62410
   A21        1.73646  -0.00002  -0.00000  -0.00007  -0.00008   1.73639
   A22        1.89587  -0.00008   0.00001  -0.00022  -0.00022   1.89565
    D1       -0.26515  -0.00001  -0.00001  -0.00039  -0.00041  -0.26555
    D2        3.04520  -0.00002   0.00001  -0.00067  -0.00066   3.04454
    D3        0.72762  -0.00005   0.00000  -0.00082  -0.00081   0.72681
    D4       -1.15123   0.00004  -0.00003  -0.00012  -0.00015  -1.15138
    D5        2.73557   0.00003  -0.00005   0.00186   0.00181   2.73738
    D6       -0.23727   0.00002  -0.00002   0.00158   0.00155  -0.23571
    D7       -2.55485  -0.00001  -0.00003   0.00143   0.00140  -2.55345
    D8        1.84948   0.00008  -0.00006   0.00213   0.00207   1.85155
    D9        0.02600  -0.00002   0.00006  -0.00077  -0.00072   0.02528
   D10        3.00065  -0.00002   0.00003  -0.00053  -0.00050   3.00016
   D11        3.00066  -0.00002   0.00003  -0.00053  -0.00050   3.00016
   D12       -0.30787  -0.00002   0.00001  -0.00029  -0.00028  -0.30815
   D13        2.73558   0.00003  -0.00005   0.00186   0.00181   2.73739
   D14        1.84949   0.00008  -0.00006   0.00213   0.00207   1.85156
   D15       -2.55484  -0.00001  -0.00003   0.00143   0.00140  -2.55344
   D16       -0.23726   0.00002  -0.00002   0.00158   0.00155  -0.23570
   D17       -0.26515  -0.00001  -0.00001  -0.00039  -0.00041  -0.26556
   D18       -1.15123   0.00004  -0.00003  -0.00012  -0.00015  -1.15138
   D19        0.72762  -0.00005   0.00000  -0.00082  -0.00082   0.72680
   D20        3.04520  -0.00002   0.00001  -0.00068  -0.00067   3.04454
         Item               Value     Threshold  Converged?
 Maximum Force            0.000395     0.000450     YES
 RMS     Force            0.000121     0.000300     YES
 Maximum Displacement     0.006541     0.001800     NO 
 RMS     Displacement     0.002049     0.001200     NO 
 Predicted change in Energy=-1.839441D-06
 GradGradGradGradGradGradGradGradGradGradGradGradGradGradGradGradGradGrad

                          Input orientation:                          
 ---------------------------------------------------------------------
 Center     Atomic      Atomic             Coordinates (Angstroms)
 Number     Number       Type             X           Y           Z
 ---------------------------------------------------------------------
      1          7           0       -1.656526   -0.552490   -0.038111
      2          5           0       -0.917865    0.673833   -0.029710
      3          7           0        1.656525   -0.552490    0.038111
      4          5           0        0.917864    0.673833    0.029711
      5          1           0        2.613257   -0.586434   -0.269873
      6          1           0       -1.493670    1.709214    0.112536
      7          1           0       -0.055770    0.809588   -0.977385
      8          1           0       -1.262418   -1.458681   -0.231116
      9          1           0       -2.613255   -0.586435    0.269880
     10          1           0        1.262417   -1.458681    0.231118
     11          1           0        0.055770    0.809589    0.977385
     12          1           0        1.493670    1.709214   -0.112535
 ---------------------------------------------------------------------
                    Distance matrix (angstroms):
                    1          2          3          4          5
     1  N    0.000000
     2  B    1.431628   0.000000
     3  N    3.313928   2.852359   0.000000
     4  B    2.852359   1.836691   1.431628   0.000000
     5  H    4.276203   3.756963   1.005655   2.133630   0.000000
     6  H    2.272559   1.193231   3.878734   2.625714   4.720496
     7  H    2.302153   1.288302   2.412146   1.407351   3.094052
     8  H    1.006854   2.169538   3.068207   3.060927   3.972803
     9  H    1.005655   2.133630   4.276201   3.756962   5.254309
    10  H    3.068207   3.060928   1.006854   2.169538   1.684213
    11  H    2.412146   1.407351   2.302154   1.288302   3.169428
    12  H    3.878734   2.625714   2.272558   1.193231   2.558951
                    6          7          8          9         10
     6  H    0.000000
     7  H    2.016137   0.000000
     8  H    3.194860   2.675436   0.000000
     9  H    2.558951   3.169429   1.684213   0.000000
    10  H    4.200671   2.888450   2.566798   3.972802   0.000000
    11  H    1.989486   1.957950   2.888449   3.094049   2.675437
    12  H    2.995807   1.989486   4.200671   4.720495   3.194860
                   11         12
    11  H    0.000000
    12  H    2.016137   0.000000
 Stoichiometry    B2H8N2
 Framework group  C1[X(B2H8N2)]
 Deg. of freedom    30
 Full point group                 C1      NOp   1
 Largest Abelian subgroup         C1      NOp   1
 Largest concise Abelian subgroup C1      NOp   1
                         Standard orientation:                         
 ---------------------------------------------------------------------
 Center     Atomic      Atomic             Coordinates (Angstroms)
 Number     Number       Type             X           Y           Z
 ---------------------------------------------------------------------
      1          7           0       -1.656583   -0.550954   -0.035539
      2          5           0       -0.917910    0.675369   -0.028285
      3          7           0        1.656583   -0.550954    0.035538
      4          5           0        0.917910    0.675369    0.028285
      5          1           0        2.612835   -0.584898   -0.273932
      6          1           0       -1.493493    1.710750    0.114855
      7          1           0       -0.057288    0.811125   -0.977297
      8          1           0       -1.262775   -1.457145   -0.229156
      9          1           0       -2.612833   -0.584899    0.273938
     10          1           0        1.262775   -1.457145    0.229156
     11          1           0        0.057288    0.811125    0.977297
     12          1           0        1.493494    1.710750   -0.114855
 ---------------------------------------------------------------------
 Rotational constants (GHZ):          15.3205597           4.2416248           3.4232117
 Standard basis: 6-31G(d,p) (6D, 7F)
 There are   100 symmetry adapted cartesian basis functions of A   symmetry.
 There are   100 symmetry adapted basis functions of A   symmetry.
   100 basis functions,   168 primitive gaussians,   100 cartesian basis functions
    16 alpha electrons       16 beta electrons
       nuclear repulsion energy       111.9585343234 Hartrees.
 NAtoms=   12 NActive=   12 NUniq=   12 SFac= 1.00D+00 NAtFMM=   60 NAOKFM=F Big=F
 Integral buffers will be    131072 words long.
 Raffenetti 2 integral format.
 Two-electron integral symmetry is turned on.
 One-electron integrals computed using PRISM.
 NBasis=   100 RedAO= T EigKep=  4.20D-03  NBF=   100
 NBsUse=   100 1.00D-06 EigRej= -1.00D+00 NBFU=   100
 Initial guess from the checkpoint file:  "/scratch/1311839/Gau-8894.chk"
 B after Tr=    -0.000000   -0.000000   -0.000000
         Rot=    1.000000   -0.000000    0.000020   -0.000000 Ang=   0.00 deg.
 Initial guess <Sx>= 0.0000 <Sy>= 0.0000 <Sz>= 0.0000 <S**2>= 0.0000 S= 0.0000
 Keep R1 and R2 ints in memory in canonical form, NReq=29209894.
 Requested convergence on RMS density matrix=1.00D-08 within1024 cycles.
 Requested convergence on MAX density matrix=1.00D-06.
 Requested convergence on             energy=1.00D-06.
 No special actions if energy rises.
 SCF Done:  E(UB3LYP) =  -164.078770285     A.U. after    7 cycles
            NFock=  7  Conv=0.17D-08     -V/T= 2.0099
 <Sx>= 0.0000 <Sy>= 0.0000 <Sz>= 0.0000 <S**2>=-0.0000 S=-0.0000
 <L.S>= 0.000000000000E+00
 Annihilation of the first spin contaminant:
 S**2 before annihilation    -0.0000,   after    -0.0000
 Calling FoFJK, ICntrl=      2127 FMM=F ISym2X=0 I1Cent= 0 IOpClX= 1 NMat=1 NMatS=1 NMatT=0.
 ***** Axes restored to original set *****
 -------------------------------------------------------------------
 Center     Atomic                   Forces (Hartrees/Bohr)
 Number     Number              X              Y              Z
 -------------------------------------------------------------------
      1        7           0.000163814   -0.000083161    0.000140681
      2        5          -0.000124827    0.000140191    0.000040431
      3        7          -0.000163809   -0.000083188   -0.000140684
      4        5           0.000124853    0.000140204   -0.000040436
      5        1           0.000029292    0.000042753    0.000060341
      6        1          -0.000043693   -0.000041255   -0.000010289
      7        1           0.000016139    0.000004263    0.000012628
      8        1           0.000014870   -0.000062780   -0.000054831
      9        1          -0.000029334    0.000042743   -0.000060361
     10        1          -0.000014847   -0.000062776    0.000054853
     11        1          -0.000016149    0.000004261   -0.000012640
     12        1           0.000043692   -0.000041255    0.000010305
 -------------------------------------------------------------------
 Cartesian Forces:  Max     0.000163814 RMS     0.000077486

 GradGradGradGradGradGradGradGradGradGradGradGradGradGradGradGradGradGrad
 Berny optimization.
 Using GEDIIS/GDIIS optimizer.
 FormGI is forming the generalized inverse of G from B-inverse, IUseBI=4.
 Internal  Forces:  Max     0.000283863 RMS     0.000075007
 Search for a local minimum.
 Step number   3 out of a maximum of   65
 All quantities printed in internal units (Hartrees-Bohrs-Radians)
 Mixed Optimization -- En-DIIS/RFO-DIIS
 Swapping is turned off.
 Update second derivatives using D2CorX and points    1    2    3
 DE= -3.07D-06 DEPred=-1.84D-06 R= 1.67D+00
 TightC=F SS=  1.41D+00  RLast= 6.48D-03 DXNew= 5.0454D-01 1.9432D-02
 Trust test= 1.67D+00 RLast= 6.48D-03 DXMaxT set to 3.00D-01
 ITU=  1  1  0
     Eigenvalues ---    0.01041   0.01800   0.01821   0.01827   0.02981
     Eigenvalues ---    0.03565   0.03605   0.08172   0.10089   0.11171
     Eigenvalues ---    0.13055   0.14485   0.15517   0.15911   0.16000
     Eigenvalues ---    0.16000   0.16000   0.16198   0.16468   0.17139
     Eigenvalues ---    0.18362   0.18849   0.25237   0.25241   0.40730
     Eigenvalues ---    0.40738   0.45101   0.46663   0.46677   0.51233
 En-DIIS/RFO-DIIS/Sim-DIIS IScMMF=       -3 using points:     3    2
 RFO step:  Lambda=-7.71259604D-06.
 DidBck=F Rises=F RFO-DIIS coefs:    3.00000   -2.00000
 Iteration  1 RMS(Cart)=  0.00634733 RMS(Int)=  0.00001448
 Iteration  2 RMS(Cart)=  0.00001973 RMS(Int)=  0.00000610
 Iteration  3 RMS(Cart)=  0.00000000 RMS(Int)=  0.00000610
 Variable       Old X    -DE/DX   Delta X   Delta X   Delta X     New X
                                 (Linear)    (Quad)   (Total)
    R1        2.70539   0.00001  -0.00001   0.00008   0.00007   2.70545
    R2        1.90268   0.00007   0.00090  -0.00064   0.00025   1.90293
    R3        1.90041   0.00001   0.00010  -0.00002   0.00008   1.90049
    R4        3.47084  -0.00005  -0.00051  -0.00007  -0.00060   3.47024
    R5        2.25488  -0.00002  -0.00006  -0.00009  -0.00015   2.25473
    R6        2.43454   0.00004  -0.00016   0.00048   0.00032   2.43486
    R7        2.65951   0.00000  -0.00014  -0.00014  -0.00028   2.65923
    R8        2.70539   0.00001  -0.00001   0.00008   0.00007   2.70545
    R9        1.90041   0.00001   0.00010  -0.00002   0.00008   1.90049
   R10        1.90268   0.00007   0.00090  -0.00064   0.00025   1.90293
   R11        2.65951   0.00000  -0.00014  -0.00014  -0.00028   2.65923
   R12        2.43454   0.00004  -0.00016   0.00048   0.00032   2.43486
   R13        2.25488  -0.00002  -0.00006  -0.00009  -0.00015   2.25473
    A1        2.17745   0.00003   0.00131  -0.00001   0.00129   2.17873
    A2        2.11528  -0.00004  -0.00157   0.00051  -0.00108   2.11420
    A3        1.98309   0.00002   0.00074   0.00002   0.00074   1.98383
    A4        2.11283  -0.00028  -0.00379  -0.00185  -0.00564   2.10719
    A5        2.08863   0.00006   0.00151  -0.00015   0.00135   2.08998
    A6        2.01663   0.00001  -0.00063   0.00021  -0.00042   2.01621
    A7        2.03061  -0.00002  -0.00010   0.00010   0.00000   2.03061
    A8        2.06969   0.00022   0.00232   0.00200   0.00432   2.07400
    A9        1.89565  -0.00004  -0.00043   0.00004  -0.00039   1.89526
   A10        1.73639  -0.00000  -0.00015   0.00014  -0.00001   1.73638
   A11        1.62410  -0.00003  -0.00065  -0.00040  -0.00105   1.62305
   A12        2.11528  -0.00004  -0.00157   0.00051  -0.00108   2.11420
   A13        2.17745   0.00003   0.00131  -0.00001   0.00129   2.17874
   A14        1.98309   0.00002   0.00074   0.00002   0.00074   1.98383
   A15        2.11283  -0.00028  -0.00379  -0.00185  -0.00564   2.10719
   A16        2.06969   0.00022   0.00232   0.00200   0.00432   2.07400
   A17        2.03061  -0.00002  -0.00010   0.00010   0.00000   2.03061
   A18        2.01663   0.00001  -0.00063   0.00021  -0.00042   2.01621
   A19        2.08863   0.00006   0.00151  -0.00015   0.00135   2.08998
   A20        1.62410  -0.00003  -0.00065  -0.00040  -0.00105   1.62305
   A21        1.73639  -0.00000  -0.00015   0.00014  -0.00001   1.73638
   A22        1.89565  -0.00004  -0.00043   0.00004  -0.00039   1.89526
    D1       -0.26555  -0.00001  -0.00082  -0.00189  -0.00271  -0.26826
    D2        3.04454  -0.00002  -0.00133  -0.00205  -0.00338   3.04116
    D3        0.72681  -0.00004  -0.00163  -0.00220  -0.00383   0.72298
    D4       -1.15138   0.00001  -0.00030  -0.00189  -0.00219  -1.15357
    D5        2.73738   0.00003   0.00362   0.00292   0.00654   2.74392
    D6       -0.23571   0.00002   0.00311   0.00276   0.00586  -0.22985
    D7       -2.55345   0.00000   0.00281   0.00261   0.00542  -2.54803
    D8        1.85155   0.00005   0.00414   0.00292   0.00706   1.85861
    D9        0.02528  -0.00001  -0.00143  -0.00033  -0.00176   0.02352
   D10        3.00016  -0.00001  -0.00099  -0.00037  -0.00136   2.99879
   D11        3.00016  -0.00001  -0.00099  -0.00037  -0.00136   2.99879
   D12       -0.30815  -0.00002  -0.00055  -0.00041  -0.00096  -0.30911
   D13        2.73739   0.00003   0.00362   0.00292   0.00654   2.74392
   D14        1.85156   0.00005   0.00414   0.00292   0.00706   1.85862
   D15       -2.55344   0.00000   0.00281   0.00261   0.00542  -2.54802
   D16       -0.23570   0.00002   0.00311   0.00275   0.00586  -0.22984
   D17       -0.26556  -0.00001  -0.00082  -0.00189  -0.00271  -0.26827
   D18       -1.15138   0.00001  -0.00030  -0.00189  -0.00219  -1.15357
   D19        0.72680  -0.00004  -0.00163  -0.00220  -0.00383   0.72297
   D20        3.04454  -0.00002  -0.00133  -0.00205  -0.00339   3.04115
         Item               Value     Threshold  Converged?
 Maximum Force            0.000284     0.000450     YES
 RMS     Force            0.000075     0.000300     YES
 Maximum Displacement     0.019474     0.001800     NO 
 RMS     Displacement     0.006351     0.001200     NO 
 Predicted change in Energy=-3.857028D-06
 GradGradGradGradGradGradGradGradGradGradGradGradGradGradGradGradGradGrad

                          Input orientation:                          
 ---------------------------------------------------------------------
 Center     Atomic      Atomic             Coordinates (Angstroms)
 Number     Number       Type             X           Y           Z
 ---------------------------------------------------------------------
      1          7           0       -1.649490   -0.554653   -0.036454
      2          5           0       -0.917749    0.675857   -0.028336
      3          7           0        1.649489   -0.554654    0.036454
      4          5           0        0.917749    0.675857    0.028337
      5          1           0        2.607271   -0.592102   -0.267970
      6          1           0       -1.497823    1.708647    0.114737
      7          1           0       -0.057024    0.816137   -0.976829
      8          1           0       -1.252112   -1.458856   -0.232753
      9          1           0       -2.607271   -0.592102    0.267974
     10          1           0        1.252113   -1.458856    0.232757
     11          1           0        0.057024    0.816138    0.976830
     12          1           0        1.497823    1.708647   -0.114736
 ---------------------------------------------------------------------
                    Distance matrix (angstroms):
                    1          2          3          4          5
     1  N    0.000000
     2  B    1.431665   0.000000
     3  N    3.299784   2.847642   0.000000
     4  B    2.847642   1.836373   1.431665   0.000000
     5  H    4.263216   3.753786   1.005696   2.133073   0.000000
     6  H    2.273410   1.193152   3.877400   2.628519   4.721410
     7  H    2.302024   1.288474   2.412052   1.407203   3.095818
     8  H    1.006988   2.170388   3.051122   3.055072   3.955672
     9  H    1.005696   2.133074   4.263215   3.753786   5.242011
    10  H    3.051123   3.055073   1.006988   2.170388   1.684768
    11  H    2.412053   1.407203   2.302025   1.288474   3.168032
    12  H    3.877400   2.628519   2.273409   1.193152   2.558867
                    6          7          8          9         10
     6  H    0.000000
     7  H    2.015935   0.000000
     8  H    3.195966   2.675346   0.000000
     9  H    2.558868   3.168033   1.684768   0.000000
    10  H    4.196326   2.890075   2.547124   3.955672   0.000000
    11  H    1.989303   1.956984   2.890073   3.095816   2.675347
    12  H    3.004423   1.989303   4.196325   4.721410   3.195966
                   11         12
    11  H    0.000000
    12  H    2.015935   0.000000
 Stoichiometry    B2H8N2
 Framework group  C1[X(B2H8N2)]
 Deg. of freedom    30
 Full point group                 C1      NOp   1
 Largest Abelian subgroup         C1      NOp   1
 Largest concise Abelian subgroup C1      NOp   1
                         Standard orientation:                         
 ---------------------------------------------------------------------
 Center     Atomic      Atomic             Coordinates (Angstroms)
 Number     Number       Type             X           Y           Z
 ---------------------------------------------------------------------
      1          7           0       -1.649519   -0.552812   -0.035068
      2          5           0       -0.917773    0.677698   -0.027565
      3          7           0        1.649519   -0.552812    0.035067
      4          5           0        0.917773    0.677698    0.027565
      5          1           0        2.607045   -0.590260   -0.270163
      6          1           0       -1.497726    1.710489    0.115996
      7          1           0       -0.057846    0.817979   -0.976781
      8          1           0       -1.252307   -1.457014   -0.231701
      9          1           0       -2.607044   -0.590261    0.270167
     10          1           0        1.252308   -1.457014    0.231703
     11          1           0        0.057845    0.817979    0.976781
     12          1           0        1.497726    1.710489   -0.115996
 ---------------------------------------------------------------------
 Rotational constants (GHZ):          15.2490450           4.2686007           3.4369194
 Standard basis: 6-31G(d,p) (6D, 7F)
 There are   100 symmetry adapted cartesian basis functions of A   symmetry.
 There are   100 symmetry adapted basis functions of A   symmetry.
   100 basis functions,   168 primitive gaussians,   100 cartesian basis functions
    16 alpha electrons       16 beta electrons
       nuclear repulsion energy       112.0359879624 Hartrees.
 NAtoms=   12 NActive=   12 NUniq=   12 SFac= 1.00D+00 NAtFMM=   60 NAOKFM=F Big=F
 Integral buffers will be    131072 words long.
 Raffenetti 2 integral format.
 Two-electron integral symmetry is turned on.
 One-electron integrals computed using PRISM.
 NBasis=   100 RedAO= T EigKep=  4.18D-03  NBF=   100
 NBsUse=   100 1.00D-06 EigRej= -1.00D+00 NBFU=   100
 Initial guess from the checkpoint file:  "/scratch/1311839/Gau-8894.chk"
 B after Tr=     0.000000    0.000000    0.000000
         Rot=    1.000000   -0.000000    0.000073   -0.000000 Ang=   0.01 deg.
 Initial guess <Sx>= 0.0000 <Sy>= 0.0000 <Sz>= 0.0000 <S**2>=-0.0000 S=-0.0000
 Keep R1 and R2 ints in memory in canonical form, NReq=29209894.
 Requested convergence on RMS density matrix=1.00D-08 within1024 cycles.
 Requested convergence on MAX density matrix=1.00D-06.
 Requested convergence on             energy=1.00D-06.
 No special actions if energy rises.
 SCF Done:  E(UB3LYP) =  -164.078775061     A.U. after    7 cycles
            NFock=  7  Conv=0.51D-08     -V/T= 2.0099
 <Sx>= 0.0000 <Sy>= 0.0000 <Sz>= 0.0000 <S**2>=-0.0000 S=-0.0000
 <L.S>= 0.000000000000E+00
 Annihilation of the first spin contaminant:
 S**2 before annihilation    -0.0000,   after    -0.0000
 Calling FoFJK, ICntrl=      2127 FMM=F ISym2X=0 I1Cent= 0 IOpClX= 1 NMat=1 NMatS=1 NMatT=0.
 ***** Axes restored to original set *****
 -------------------------------------------------------------------
 Center     Atomic                   Forces (Hartrees/Bohr)
 Number     Number              X              Y              Z
 -------------------------------------------------------------------
      1        7          -0.000073083    0.000010307    0.000243814
      2        5           0.000157411   -0.000014805   -0.000041995
      3        7           0.000073099    0.000010357   -0.000243800
      4        5          -0.000157488   -0.000014825    0.000042006
      5        1          -0.000009635   -0.000072720    0.000083807
      6        1          -0.000089537   -0.000051880   -0.000005959
      7        1           0.000060628    0.000003853   -0.000029791
      8        1          -0.000035077    0.000125229   -0.000064794
      9        1           0.000009691   -0.000072687   -0.000083820
     10        1           0.000035049    0.000125226    0.000064796
     11        1          -0.000060594    0.000003827    0.000029786
     12        1           0.000089535   -0.000051881    0.000005949
 -------------------------------------------------------------------
 Cartesian Forces:  Max     0.000243814 RMS     0.000088348

 GradGradGradGradGradGradGradGradGradGradGradGradGradGradGradGradGradGrad
 Berny optimization.
 Using GEDIIS/GDIIS optimizer.
 FormGI is forming the generalized inverse of G from B-inverse, IUseBI=4.
 Internal  Forces:  Max     0.000130880 RMS     0.000051553
 Search for a local minimum.
 Step number   4 out of a maximum of   65
 All quantities printed in internal units (Hartrees-Bohrs-Radians)
 Mixed Optimization -- En-DIIS/RFO-DIIS
 Swapping is turned off.
 Update second derivatives using D2CorX and points    1    2    3    4
 DE= -4.78D-06 DEPred=-3.86D-06 R= 1.24D+00
 TightC=F SS=  1.41D+00  RLast= 2.26D-02 DXNew= 5.0454D-01 6.7872D-02
 Trust test= 1.24D+00 RLast= 2.26D-02 DXMaxT set to 3.00D-01
 ITU=  1  1  1  0
     Eigenvalues ---    0.00647   0.01800   0.01824   0.01845   0.02988
     Eigenvalues ---    0.03564   0.03639   0.08752   0.10272   0.11170
     Eigenvalues ---    0.13073   0.14520   0.15542   0.15911   0.16000
     Eigenvalues ---    0.16000   0.16005   0.16193   0.16446   0.17310
     Eigenvalues ---    0.18854   0.21803   0.25237   0.25319   0.40730
     Eigenvalues ---    0.40765   0.45101   0.46664   0.46677   0.47499
 En-DIIS/RFO-DIIS/Sim-DIIS IScMMF=       -3 using points:     4    3    2
 RFO step:  Lambda=-2.35351579D-06.
 DIIS inversion failure, remove point   3.
 RFO-DIIS uses    2 points instead of    3
 DidBck=F Rises=F RFO-DIIS coefs:    1.69711   -0.69711    0.00000
 Iteration  1 RMS(Cart)=  0.00316349 RMS(Int)=  0.00000778
 Iteration  2 RMS(Cart)=  0.00000647 RMS(Int)=  0.00000627
 Iteration  3 RMS(Cart)=  0.00000000 RMS(Int)=  0.00000627
 Variable       Old X    -DE/DX   Delta X   Delta X   Delta X     New X
                                 (Linear)    (Quad)   (Total)
    R1        2.70545  -0.00000   0.00005  -0.00005  -0.00001   2.70545
    R2        1.90293  -0.00011   0.00018  -0.00041  -0.00024   1.90270
    R3        1.90049  -0.00003   0.00005  -0.00009  -0.00004   1.90045
    R4        3.47024   0.00001  -0.00042   0.00001  -0.00042   3.46982
    R5        2.25473  -0.00000  -0.00010   0.00007  -0.00003   2.25470
    R6        2.43486   0.00005   0.00023   0.00018   0.00042   2.43528
    R7        2.65923  -0.00002  -0.00019  -0.00004  -0.00023   2.65899
    R8        2.70545  -0.00000   0.00005  -0.00005  -0.00001   2.70545
    R9        1.90049  -0.00003   0.00005  -0.00009  -0.00004   1.90045
   R10        1.90293  -0.00011   0.00018  -0.00041  -0.00024   1.90270
   R11        2.65923  -0.00002  -0.00019  -0.00004  -0.00023   2.65899
   R12        2.43486   0.00005   0.00023   0.00018   0.00042   2.43528
   R13        2.25473  -0.00000  -0.00010   0.00007  -0.00003   2.25470
    A1        2.17873  -0.00009   0.00090  -0.00071   0.00017   2.17890
    A2        2.11420   0.00013  -0.00075   0.00112   0.00035   2.11455
    A3        1.98383  -0.00003   0.00052  -0.00027   0.00023   1.98406
    A4        2.10719   0.00001  -0.00393   0.00136  -0.00257   2.10462
    A5        2.08998  -0.00009   0.00094  -0.00088   0.00007   2.09005
    A6        2.01621   0.00003  -0.00029   0.00031   0.00002   2.01623
    A7        2.03061   0.00001   0.00000   0.00006   0.00007   2.03067
    A8        2.07400   0.00009   0.00301  -0.00049   0.00252   2.07652
    A9        1.89526   0.00004  -0.00027   0.00028   0.00001   1.89527
   A10        1.73638   0.00004  -0.00001   0.00020   0.00019   1.73657
   A11        1.62305  -0.00000  -0.00073   0.00031  -0.00043   1.62262
   A12        2.11420   0.00013  -0.00075   0.00112   0.00035   2.11455
   A13        2.17874  -0.00009   0.00090  -0.00071   0.00017   2.17890
   A14        1.98383  -0.00003   0.00052  -0.00027   0.00023   1.98406
   A15        2.10719   0.00001  -0.00393   0.00136  -0.00257   2.10462
   A16        2.07400   0.00009   0.00301  -0.00049   0.00252   2.07652
   A17        2.03061   0.00001   0.00000   0.00006   0.00007   2.03067
   A18        2.01621   0.00003  -0.00029   0.00031   0.00002   2.01623
   A19        2.08998  -0.00009   0.00094  -0.00088   0.00007   2.09005
   A20        1.62305  -0.00000  -0.00073   0.00031  -0.00043   1.62262
   A21        1.73638   0.00004  -0.00001   0.00020   0.00019   1.73657
   A22        1.89526   0.00004  -0.00027   0.00028   0.00001   1.89527
    D1       -0.26826  -0.00002  -0.00189  -0.00130  -0.00319  -0.27145
    D2        3.04116  -0.00003  -0.00236  -0.00117  -0.00353   3.03762
    D3        0.72298  -0.00002  -0.00267  -0.00097  -0.00364   0.71934
    D4       -1.15357  -0.00005  -0.00152  -0.00161  -0.00313  -1.15670
    D5        2.74392   0.00003   0.00456  -0.00000   0.00455   2.74847
    D6       -0.22985   0.00003   0.00409   0.00012   0.00421  -0.22564
    D7       -2.54803   0.00004   0.00378   0.00033   0.00411  -2.54392
    D8        1.85861   0.00001   0.00492  -0.00031   0.00461   1.86322
    D9        0.02352   0.00001  -0.00123   0.00055  -0.00068   0.02284
   D10        2.99879   0.00000  -0.00095   0.00038  -0.00057   2.99822
   D11        2.99879   0.00000  -0.00095   0.00038  -0.00057   2.99822
   D12       -0.30911  -0.00000  -0.00067   0.00021  -0.00046  -0.30957
   D13        2.74392   0.00003   0.00456  -0.00000   0.00455   2.74847
   D14        1.85862   0.00001   0.00492  -0.00031   0.00461   1.86323
   D15       -2.54802   0.00004   0.00378   0.00033   0.00411  -2.54392
   D16       -0.22984   0.00003   0.00409   0.00013   0.00421  -0.22563
[...]
   D15       -2.15385   0.00001   0.00000   0.00063   0.00063  -2.15322
   D16        0.15169   0.00001   0.00000   0.00092   0.00092   0.15262
   D17       -0.53420  -0.00000   0.00000   0.00033   0.00033  -0.53387
   D18       -1.43081  -0.00001   0.00000   0.00026   0.00026  -1.43056
   D19        0.43739   0.00001   0.00000   0.00072   0.00072   0.43811
   D20        2.74293   0.00000   0.00000   0.00102   0.00102   2.74395
         Item               Value     Threshold  Converged?
 Maximum Force            0.000033     0.000450     YES
 RMS     Force            0.000014     0.000300     YES
 Maximum Displacement     0.001857     0.001800     NO 
 RMS     Displacement     0.000644     0.001200     YES
 Predicted change in Energy=-8.362540D-08
                           ----------------------------
                           ! Non-Optimized Parameters !
                           ! (Angstroms and Degrees)  !
 --------------------------                            --------------------------
 ! Name  Definition              Value          Derivative Info.                !
 --------------------------------------------------------------------------------
 ! R1    R(1,2)                  1.4386         -DE/DX =    0.0                 !
 ! R2    R(1,8)                  1.009          -DE/DX =    0.0                 !
 ! R3    R(1,9)                  1.0071         -DE/DX =    0.0                 !
 ! R4    R(2,4)                  1.8149         -DE/DX =    0.0                 !
 ! R5    R(2,6)                  1.1931         -DE/DX =    0.0                 !
 ! R6    R(2,7)                  1.3046         -DE/DX =    0.0                 !
 ! R7    R(2,11)                 1.3759         -DE/DX =    0.0                 !
 ! R8    R(3,4)                  1.4386         -DE/DX =    0.0                 !
 ! R9    R(3,5)                  1.0071         -DE/DX =    0.0                 !
 ! R10   R(3,10)                 1.009          -DE/DX =    0.0                 !
 ! R11   R(4,7)                  1.3759         -DE/DX =    0.0                 !
 ! R12   R(4,11)                 1.3046         -DE/DX =    0.0                 !
 ! R13   R(4,12)                 1.1931         -DE/DX =    0.0                 !
 ! A1    A(2,1,8)              121.6813         -DE/DX =    0.0                 !
 ! A2    A(2,1,9)              118.9928         -DE/DX =    0.0                 !
 ! A3    A(8,1,9)              112.3277         -DE/DX =    0.0                 !
 ! A4    A(1,2,4)              118.2753         -DE/DX =    0.0                 !
 ! A5    A(1,2,6)              120.3893         -DE/DX =    0.0                 !
 ! A6    A(1,2,7)              116.3868         -DE/DX =    0.0                 !
 ! A7    A(1,2,11)             114.8292         -DE/DX =    0.0                 !
 ! A8    A(4,2,6)              120.8644         -DE/DX =    0.0                 !
 ! A9    A(6,2,7)              107.0609         -DE/DX =    0.0                 !
 ! A10   A(6,2,11)             100.8745         -DE/DX =    0.0                 !
 ! A11   A(7,2,11)              92.9797         -DE/DX =    0.0                 !
 ! A12   A(4,3,5)              118.9928         -DE/DX =    0.0                 !
 ! A13   A(4,3,10)             121.6813         -DE/DX =    0.0                 !
 ! A14   A(5,3,10)             112.3276         -DE/DX =    0.0                 !
 ! A15   A(2,4,3)              118.2753         -DE/DX =    0.0                 !
 ! A16   A(2,4,12)             120.8644         -DE/DX =    0.0                 !
 ! A17   A(3,4,7)              114.8292         -DE/DX =    0.0                 !
 ! A18   A(3,4,11)             116.3868         -DE/DX =    0.0                 !
 ! A19   A(3,4,12)             120.3893         -DE/DX =    0.0                 !
 ! A20   A(7,4,11)              92.9797         -DE/DX =    0.0                 !
 ! A21   A(7,4,12)             100.8745         -DE/DX =    0.0                 !
 ! A22   A(11,4,12)            107.0609         -DE/DX =    0.0                 !
 ! D1    D(8,1,2,4)            -30.5888         -DE/DX =    0.0                 !
 ! D2    D(8,1,2,6)            157.2166         -DE/DX =    0.0                 !
 ! D3    D(8,1,2,7)             25.1017         -DE/DX =    0.0                 !
 ! D4    D(8,1,2,11)           -81.9648         -DE/DX =    0.0                 !
 ! D5    D(9,1,2,4)           -179.0609         -DE/DX =    0.0                 !
 ! D6    D(9,1,2,6)              8.7444         -DE/DX =    0.0                 !
 ! D7    D(9,1,2,7)           -123.3705         -DE/DX =    0.0                 !
 ! D8    D(9,1,2,11)           129.563          -DE/DX =    0.0                 !
 ! D9    D(1,2,4,3)              3.4808         -DE/DX =    0.0                 !
 ! D10   D(1,2,4,12)           175.6368         -DE/DX =    0.0                 !
 ! D11   D(6,2,4,3)            175.6368         -DE/DX =    0.0                 !
 ! D12   D(6,2,4,12)           -12.2072         -DE/DX =    0.0                 !
 ! D13   D(5,3,4,2)           -179.0609         -DE/DX =    0.0                 !
 ! D14   D(5,3,4,7)            129.563          -DE/DX =    0.0                 !
 ! D15   D(5,3,4,11)          -123.3704         -DE/DX =    0.0                 !
 ! D16   D(5,3,4,12)             8.7444         -DE/DX =    0.0                 !
 ! D17   D(10,3,4,2)           -30.5888         -DE/DX =    0.0                 !
 ! D18   D(10,3,4,7)           -81.9648         -DE/DX =    0.0                 !
 ! D19   D(10,3,4,11)           25.1017         -DE/DX =    0.0                 !
 ! D20   D(10,3,4,12)          157.2166         -DE/DX =    0.0                 !
 --------------------------------------------------------------------------------
 GradGradGradGradGradGradGradGradGradGradGradGradGradGradGradGradGradGrad


 ----------------------------------------------------------------------

 Electric dipole moment (input orientation):
 (Debye = 10**-18 statcoulomb cm , SI units = C m)
                  (au)            (Debye)         (10**-30 SI)
   Tot        0.709237D+00      0.180270D+01      0.601316D+01
   x          0.000000D+00      0.000000D+00      0.000000D+00
   y         -0.709237D+00     -0.180270D+01     -0.601316D+01
   z          0.000000D+00      0.000000D+00      0.000000D+00

 Dipole polarizability, Alpha (input orientation).
 (esu units = cm**3 , SI units = C**2 m**2 J**-1)
 Alpha(0;0):
               (au)            (10**-24 esu)      (10**-40 SI)
   iso        0.416305D+02      0.616901D+01      0.686394D+01
   aniso      0.236142D+02      0.349927D+01      0.389346D+01
   xx         0.545762D+02      0.808736D+01      0.899840D+01
   yx         0.000000D+00      0.000000D+00      0.000000D+00
   yy         0.426384D+02      0.631836D+01      0.703012D+01
   zx        -0.205497D+01     -0.304515D+00     -0.338819D+00
   zy         0.000000D+00      0.000000D+00      0.000000D+00
   zz         0.276769D+02      0.410130D+01      0.456331D+01

 ----------------------------------------------------------------------

 Dipole orientation:
     7         -2.99562086          0.20139151          1.11802216
     5         -1.71336031          0.07378539         -1.27578552
     7          2.99562438         -0.20139215          1.11801481
     5          1.71335852         -0.07377845         -1.27578925
     1          4.89784821         -0.25716442          1.14386885
     1         -2.86043912          0.32808601         -3.19998699
     1         -0.17805869         -1.82863563         -1.59566137
     1         -2.27319997         -0.60973829          2.68510128
     1         -4.89784418          0.25717673          1.14388059
     1          2.27320113          0.60972381          2.68510009
     1          0.17805508          1.82864329         -1.59565859
     1          2.86043360         -0.32807385         -3.19999355

 Electric dipole moment (dipole orientation):
 (Debye = 10**-18 statcoulomb cm , SI units = C m)
                  (au)            (Debye)         (10**-30 SI)
   Tot        0.709237D+00      0.180270D+01      0.601316D+01
   x          0.000000D+00      0.000000D+00      0.000000D+00
   y          0.000000D+00      0.000000D+00      0.000000D+00
   z          0.709237D+00      0.180270D+01      0.601316D+01

 Dipole polarizability, Alpha (dipole orientation).
 (esu units = cm**3 , SI units = C**2 m**2 J**-1)
 Alpha(0;0):
               (au)            (10**-24 esu)      (10**-40 SI)
   iso        0.416305D+02      0.616901D+01      0.686394D+01
   aniso      0.236142D+02      0.349927D+01      0.389346D+01
   xx         0.545762D+02      0.808736D+01      0.899840D+01
   yx        -0.205500D+01     -0.304519D+00     -0.338823D+00
   yy         0.276770D+02      0.410130D+01      0.456331D+01
   zx        -0.171606D-04     -0.254295D-05     -0.282941D-05
   zy        -0.339219D-04     -0.502671D-05     -0.559296D-05
   zz         0.426384D+02      0.631836D+01      0.703012D+01

 ----------------------------------------------------------------------
 1\1\GINC-MNODE009\Freq\UB3LYP\6-31G(d,p)\B2H8N2\MARIAHARRIS\03-Jul-202
 0\0\\#N Geom=AllCheck Guess=TCheck SCRF=Check GenChk UB3LYP/6-31G(d,p)
  Freq\\something title\\0,1\N,-1.5852149816,-0.5916300481,0.1065715643
 \B,-0.9066706023,0.6751176023,0.039043136\N,1.5852156756,-0.5916297627
 ,-0.1065692421\B,0.9066709846,0.6751176133,-0.0390424974\H,2.591829193
 3,-0.6053121883,-0.1360816339\H,-1.5136776974,1.6933620728,0.173610342
 8\H,-0.094222813,0.8443855537,-0.9676742946\H,-1.2029267027,-1.4208939
 472,-0.3226575992\H,-2.5918282538,-0.6053126805,0.1360908715\H,1.20292
 4513,-1.4208942371,0.3226563219\H,0.0942225696,0.8443882448,0.96767454
 91\H,1.5136781147,1.6933617772,-0.1736115185\\Version=EM64L-G16RevA.03
 \State=1-A\HF=-164.0792012\S2=0.\S2-1=0.\S2A=0.\RMSD=9.218e-10\RMSF=2.
 990e-05\ZeroPoint=0.0994563\Thermal=0.1057646\Dipole=-0.0000007,-0.709
 2368,0.0000016\DipoleDeriv=-0.6800628,-0.1949989,-0.0549561,-0.5749801
 ,-0.7872423,0.1181784,0.1424697,0.2142878,-0.6363598,1.1801987,0.36103
 66,-0.0016832,0.5248566,0.7643199,0.0135377,-0.0578259,0.0414419,0.322
 555,-0.6800633,0.1950003,-0.0549537,0.5749811,-0.7872414,-0.1181776,0.
 1424718,-0.2142867,-0.6363603,1.1801998,-0.3610365,-0.0016837,-0.52485
 66,0.7643194,-0.0135382,-0.0578265,-0.0414428,0.3225561,0.1172705,0.00
 11313,0.0074632,0.0207715,0.1625571,0.0298901,-0.0695067,0.0671884,0.2
 824191,-0.2026305,0.0797666,0.0110372,0.0751636,-0.227075,-0.0168564,-
 0.0029845,-0.0322102,-0.0555125,-0.550636,0.0281611,-0.0070486,0.03074
 ,-0.0341236,0.0100602,-0.0030337,0.0060437,-0.1666425,0.1358603,0.0205
 966,0.0451861,0.0483046,0.121564,-0.0606422,-0.0091208,-0.1064417,0.25
 35404,0.1172701,-0.0011318,0.0074644,-0.0207719,0.1625572,-0.0298903,-
 0.0695046,-0.0671886,0.2824191,0.1358606,-0.0205975,0.0451853,-0.04830
 49,0.1215637,0.0606421,-0.0091213,0.1064419,0.2535409,-0.550637,-0.028
 1612,-0.0070482,-0.0307404,-0.0341242,-0.0100605,-0.0030341,-0.0060444
 ,-0.1666428,-0.2026304,-0.0797666,0.0110372,-0.0751635,-0.2270747,0.01
 68568,-0.0029834,0.0322106,-0.0555128\Polar=54.5762018,0.0000008,42.63
 83777,-2.0549703,0.0000023,27.6769485\Quadrupole=2.5284844,-0.3701114,
 -2.158373,0.0000051,0.9724729,0.0000027\PG=C01 [X(B2H8N2)]\NImag=0\\0.
 72534735,0.01276248,0.65353021,-0.10211558,0.17857549,0.11043599,-0.12
 417115,-0.07900469,0.00374092,0.35449302,-0.09801637,-0.25611642,-0.01
 372968,0.01062192,0.51189271,0.02095560,0.01166500,-0.03522254,-0.0551
 2437,0.01298773,0.16610493,0.00013628,-0.00300733,0.00184528,-0.002847
 85,0.01884878,-0.00188375,0.72534866,0.00300731,0.00970609,-0.00325921
 ,-0.01212353,-0.00967169,0.00533002,-0.01276123,0.65353078,0.00184525,
 0.00325922,-0.00092571,-0.00542014,-0.00517109,-0.00616479,-0.10211164
 ,-0.17857452,0.11043433,-0.00284787,0.01212353,-0.00542014,-0.08460043
 ,-0.01796911,0.02169745,-0.12417133,0.07900487,0.00374054,0.35449306,-
 0.01884875,-0.00967173,0.00517108,0.01796919,-0.02297852,-0.00433716,0
 .09801638,-0.25611665,0.01372992,-0.01062210,0.51189300,-0.00188369,-0
 .00533014,-0.00616477,0.02169747,0.00433745,0.06603113,0.02095525,-0.0
 1166475,-0.03522239,-0.05512405,-0.01298825,0.16610455,0.00031279,0.00
 069282,-0.00016919,-0.00087650,0.00045160,-0.00023809,-0.46420005,0.00
 326006,0.02464322,-0.00986517,-0.00347795,-0.00135057,0.48176997,-0.00
 072000,0.00059998,-0.00012914,-0.00021470,-0.00337945,-0.00074865,0.01
 076674,-0.05664568,0.01556298,0.02478605,0.00343054,-0.00083827,-0.004
 38233,0.05485167,-0.00070266,-0.00022178,0.00079824,-0.00051883,0.0003
 9704,-0.00546453,0.00036457,0.01747092,-0.00332057,0.00579413,-0.00380
 451,-0.00016761,-0.02039268,-0.01299449,0.01064513,0.01063458,-0.01046
 842,-0.00280520,-0.09021944,0.08397315,0.01351313,-0.00391984,-0.00076
 931,0.00095636,-0.00079161,0.00856489,-0.00113386,-0.00025953,0.001019
 28,0.00002962,0.09394985,0.00974026,-0.01504931,-0.00397390,0.08134879
 ,-0.17661111,-0.01877253,0.00001072,-0.00017940,-0.00032219,-0.0027832
 6,0.00256860,0.00140605,-0.00023074,0.00010939,-0.00009895,-0.09006159
 ,0.18960758,-0.00125559,-0.00048238,0.00466951,0.01445841,-0.01839131,
 -0.03081281,0.00058570,-0.00043405,0.00268590,-0.00303439,0.00031947,-
 0.01312670,0.00018295,0.00014600,0.00168560,-0.01263476,0.02129572,0.0
 2790331,-0.01151101,-0.01481534,0.01228642,-0.04081575,0.00229480,0.01
 901767,-0.01446019,0.01995593,-0.00009790,-0.01373407,-0.00834675,-0.0
 0764843,0.00057318,0.00063590,-0.00542417,-0.00371315,0.00016983,0.010
 85168,0.09548519,-0.00994874,-0.00283379,0.00742466,-0.00655540,-0.019
 40178,0.00644145,0.00990831,-0.00398716,0.00395384,0.00233137,-0.01328
 620,0.00438225,0.00022652,-0.00061283,0.00161644,0.00471994,0.00111506
 ,-0.00828767,0.00345387,0.03887296,-0.00070730,0.00227239,0.00525520,0
 .03007812,0.00737917,-0.08249395,0.00249879,0.00190590,0.00725117,-0.0
 1464575,0.00289019,-0.05838205,0.00069445,-0.00065070,0.00078535,-0.00
 137296,-0.00065651,0.00268640,-0.01469419,-0.01216112,0.14743107,-0.11
 633928,0.10671669,0.06628881,0.01032410,-0.00714742,-0.00726063,0.0010
 1823,0.00255273,0.00084386,0.00310485,-0.00368280,-0.00054419,0.000155
 25,0.00054960,0.00050374,-0.00044714,-0.00166895,0.00095261,-0.0023685
 6,-0.00033846,0.00019460,0.11880757,0.12305778,-0.31897818,-0.15059572
 ,0.01168545,-0.01701620,-0.00936030,0.00034805,-0.00037460,0.00028896,
 -0.00060722,0.00056957,-0.00174446,-0.00003911,0.00011937,0.00010665,-
 0.00313723,-0.00246122,-0.00026750,0.00212672,0.00094728,0.00047130,-0
 .12949766,0.33460446,0.08075042,-0.16978455,-0.08481105,0.00014997,0.0
 0944888,-0.00327816,-0.00033867,0.00101058,-0.00065112,0.00282461,-0.0
 0214724,0.00297710,0.00012811,0.00038179,-0.00032787,0.00124322,0.0019
 0096,0.00254016,-0.00393001,-0.00018181,0.00027296,-0.07584494,0.15897
 816,0.08730558,-0.46419999,-0.00326026,0.02464632,-0.00986513,0.003477
 97,-0.00135050,0.00031279,-0.00069282,-0.00016919,-0.00087650,-0.00045
 161,-0.00023811,-0.00002272,-0.00007237,0.00000044,0.00144139,0.000758
 54,0.00004192,0.00122517,0.00020709,-0.00044966,-0.01025369,-0.0043923
 7,-0.00309087,0.48176981,-0.01076691,-0.05664565,-0.01556297,-0.024786
 05,0.00343055,0.00083842,0.00072000,0.00059998,0.00012914,0.00021471,-
 0.00337945,0.00074868,0.00007237,0.00015447,0.00005762,0.00151337,0.00
 076075,0.00021009,-0.00192553,-0.00149391,-0.00040451,0.03278029,0.002
 10570,0.00086610,0.00438250,0.05485164,0.00036772,-0.01747090,-0.00332
 079,0.00579409,0.00380444,-0.00016762,-0.00070266,0.00022176,0.0007982
 3,-0.00051888,-0.00039703,-0.00546451,0.00000044,-0.00005762,0.0000204
 1,-0.00057121,-0.00075125,-0.00205441,0.00414131,0.00188184,0.00026433
 ,0.01677585,0.00139834,-0.00286416,-0.02039587,0.01299454,0.01064542,0
 .00101825,-0.00255273,0.00084386,0.00310483,0.00368280,-0.00054419,-0.
 11634028,-0.10671787,0.06628841,0.01032417,0.00714750,-0.00726056,-0.0
 1025377,-0.03278030,0.01677576,-0.00003282,-0.00028014,0.00003932,-0.0
 0192386,0.00046496,-0.00012722,-0.00204462,0.00007916,-0.00182181,0.00
 015525,-0.00054960,0.00050375,0.11880857,-0.00034806,-0.00037458,-0.00
 028896,0.00060719,0.00056955,0.00174446,-0.12305884,-0.31897854,0.1505
 9447,-0.01168552,-0.01701622,0.00936025,0.00439238,0.00210570,-0.00139
 831,-0.00024971,0.00015079,-0.00045809,-0.00012671,-0.00028245,-0.0005
 7818,-0.00007916,0.00061548,0.00031171,0.00003911,0.00011937,-0.000106
 65,0.12949877,0.33460483,-0.00033866,-0.00101057,-0.00065114,0.0028245
 9,0.00214724,0.00297714,0.08075001,0.16978340,-0.08480974,0.00015000,-
 0.00944880,-0.00327820,-0.00309092,-0.00086632,-0.00286408,-0.00013204
 ,-0.00001709,-0.00056141,0.00006207,0.00080165,-0.00080003,-0.00182181
 ,-0.00031170,0.00019798,0.00012811,-0.00038179,-0.00032787,-0.07584452
 ,-0.15897691,0.08730419,-0.01446012,-0.01995605,-0.00009786,-0.0137341
 1,0.00834676,-0.00764851,-0.01151103,0.01481545,0.01228642,-0.04081561
 ,-0.00229484,0.01901752,0.00122515,0.00192550,0.00414128,-0.00622699,0
 .00228848,-0.01037449,-0.00253001,0.00113424,-0.00418999,-0.00192388,0
 .00012672,0.00006202,0.00057315,-0.00063588,-0.00542413,-0.00236855,-0
 .00212670,-0.00393002,0.09548516,-0.00990828,-0.00398722,-0.00395384,-
 0.00233143,-0.01328622,-0.00438238,0.00994872,-0.00283380,-0.00742462,
 0.00655546,-0.01940184,-0.00644157,-0.00020708,-0.00149390,-0.00188183
 ,0.00560371,-0.00009753,0.00628133,-0.00113425,0.00106034,-0.00040985,
 -0.00046498,-0.00028245,-0.00080167,-0.00022653,-0.00061282,-0.0016164
 3,0.00033846,0.00094727,0.00018180,-0.00345385,0.03887309,0.00249879,-
 0.00190588,0.00725119,-0.01464579,-0.00289032,-0.05838214,-0.00070730,
 -0.00227238,0.00525523,0.03007795,-0.00737928,-0.08249366,-0.00044965,
 0.00040451,0.00026434,0.00272109,0.00005810,0.00393240,-0.00419003,0.0
 0040980,-0.02620287,-0.00012722,0.00057819,-0.00080002,0.00069445,0.00
 065069,0.00078535,0.00019459,-0.00047130,0.00027295,-0.01469394,0.0121
 6138,0.14743086,-0.00391984,0.00076931,0.00095637,-0.00079160,-0.00856
 488,-0.00113381,0.01063460,0.01046841,-0.00280519,-0.09021947,-0.08397
 316,0.01351322,0.00144139,-0.00151337,-0.00057120,-0.00041531,0.000708
 06,0.00018663,-0.00622694,-0.00560369,0.00272111,-0.00003282,0.0002497
 1,-0.00013204,-0.00025954,-0.00101928,0.00002960,-0.00044716,0.0031372
 4,0.00124320,-0.00371317,-0.00471996,-0.00137294,0.09394985,-0.0000107
 2,-0.00017939,0.00032219,0.00278325,0.00256859,-0.00140607,-0.00974030
 ,-0.01504932,0.00397390,-0.08134880,-0.17661109,0.01877277,-0.00075854
 ,0.00076074,0.00075122,-0.00070806,0.00008640,0.00006841,-0.00228847,-
 0.00009753,-0.00005809,0.00028014,0.00015079,0.00001709,0.00023074,0.0
 0010939,0.00009896,0.00166899,-0.00246121,-0.00190091,-0.00016982,0.00
 111507,0.00065651,0.09006160,0.18960756,0.00058570,0.00043410,0.002685
 88,-0.00303444,-0.00031953,-0.01312667,-0.00125558,0.00048233,0.004669
 47,0.01445852,0.01839162,-0.03081289,0.00004194,-0.00021009,-0.0020544
 1,0.00018663,-0.00006841,0.00045204,-0.01037442,-0.00628131,0.00393241
 ,0.00003933,0.00045809,-0.00056140,0.00018296,-0.00014601,0.00168560,0
 .00095261,0.00026751,0.00254020,0.01085170,0.00828767,0.00268637,-0.01
 263496,-0.02129597,0.02790339\\0.00004718,-0.00006937,-0.00002372,-0.0
 0003770,0.00003847,0.00004497,-0.00004718,-0.00006934,0.00002370,0.000
 03776,0.00003844,-0.00004498,0.00003283,0.00000170,-0.00001335,0.00001
 167,0.00000700,-0.00002467,0.00001451,-0.00000897,0.00000855,-0.000006
 06,0.00003117,0.00001194,-0.00003280,0.00000169,0.00001340,0.00000603,
 0.00003116,-0.00001198,-0.00001457,-0.00000893,-0.00000852,-0.00001167
 ,0.00000699,0.00002466\\\@


 THE RED LIGHT IS ALWAYS LONGER THAN THE GREEN LIGHT.

                     -- PETER'S THEORY OF RELATIVITY
 Job cpu time:       0 days  0 hours 10 minutes 39.6 seconds.
 Elapsed time:       0 days  0 hours  2 minutes 40.0 seconds.
 File lengths (MBytes):  RWF=     29 Int=      0 D2E=      0 Chk=      2 Scr=      1
 Normal termination of Gaussian 16 at Fri Jul  3 18:40:46 2020.
