 Entering Gaussian System, Link 0=/opt/gaussian/g16/legacy/g16/g16
 Initial command:
 /opt/gaussian/g16/legacy/g16/l1.exe "/scratch/1311853/Gau-23914.inp" -scrdir="/scratch/1311853/"
 Entering Link 1 = /opt/gaussian/g16/legacy/g16/l1.exe PID=     23921.
  
 Copyright (c) 1988,1990,1992,1993,1995,1998,2003,2009,2016,
            Gaussian, Inc.  All Rights Reserved.
  
 This is part of the Gaussian(R) 16 program.  It is based on
 the Gaussian(R) 09 system (copyright 2009, Gaussian, Inc.),
 the Gaussian(R) 03 system (copyright 2003, Gaussian, Inc.),
 the Gaussian(R) 98 system (copyright 1998, Gaussian, Inc.),
 the Gaussian(R) 94 system (copyright 1995, Gaussian, Inc.),
 the Gaussian 92(TM) system (copyright 1992, Gaussian, Inc.),
 the Gaussian 90(TM) system (copyright 1990, Gaussian, Inc.),
 the Gaussian 88(TM) system (copyright 1988, Gaussian, Inc.),
 the Gaussian 86(TM) system (copyright 1986, Carnegie Mellon
 University), and the Gaussian 82(TM) system (copyright 1983,
 Carnegie Mellon University). Gaussian is a federally registered
 trademark of Gaussian, Inc.
  
 This software contains proprietary and confidential information,
 including trade secrets, belonging to Gaussian, Inc.
  
 This software is provided under written license and may be
 used, copied, transmitted, or stored only in accord with that
 written license.
  
 The following legend is applicable only to US Government
 contracts under FAR:
  
                    RESTRICTED RIGHTS LEGEND
  
 Use, reproduction and disclosure by the US Government is
 subject to restrictions as set forth in subparagraphs (a)
 and (c) of the Commercial Computer Software - Restricted
 Rights clause in FAR 52.227-19.
  
 Gaussian, Inc.
 340 Quinnipiac St., Bldg. 40, Wallingford CT 06492
  
  
 ---------------------------------------------------------------
 Warning -- This program may not be used in any manner that
 competes with the business of Gaussian, Inc. or will provide
 assistance to any competitor of Gaussian, Inc.  The licensee
 of this program is prohibited from giving any competitor of
 Gaussian, Inc. access to this program.  By using this program,
 the user acknowledges that Gaussian, Inc. is engaged in the
 business of creating and licensing software in the field of
 computational chemistry and represents and warrants to the
 licensee that it is not a competitor of Gaussian, Inc. and that
 it will not use this program in any manner prohibited above.
 ---------------------------------------------------------------
  

 Cite this work as:
 Gaussian 16, Revision A.03,
 M. J. Frisch, G. W. Trucks, H. B. Schlegel, G. E. Scuseria, 
 M. A. Robb, J. R. Cheeseman, G. Scalmani, V. Barone, 
 G. A. Petersson, H. Nakatsuji, X. Li, M. Caricato, A. V. Marenich, 
 J. Bloino, B. G. Janesko, R. Gomperts, B. Mennucci, H. P. Hratchian, 
 J. V. Ortiz, A. F. Izmaylov, J. L. Sonnenberg, D. Williams-Young, 
 F. Ding, F. Lipparini, F. Egidi, J. Goings, B. Peng, A. Petrone, 
 T. Henderson, D. Ranasinghe, V. G. Zakrzewski, J. Gao, N. Rega, 
 G. Zheng, W. Liang, M. Hada, M. Ehara, K. Toyota, R. Fukuda, 
 J. Hasegawa, M. Ishida, T. Nakajima, Y. Honda, O. Kitao, H. Nakai, 
 T. Vreven, K. Throssell, J. A. Montgomery, Jr., J. E. Peralta, 
 F. Ogliaro, M. J. Bearpark, J. J. Heyd, E. N. Brothers, K. N. Kudin, 
 V. N. Staroverov, T. A. Keith, R. Kobayashi, J. Normand, 
 K. Raghavachari, A. P. Rendell, J. C. Burant, S. S. Iyengar, 
 J. Tomasi, M. Cossi, J. M. Millam, M. Klene, C. Adamo, R. Cammi, 
 J. W. Ochterski, R. L. Martin, K. Morokuma, O. Farkas, 
 J. B. Foresman, and D. J. Fox, Gaussian, Inc., Wallingford CT, 2016.
 
 ******************************************
 Gaussian 16:  EM64L-G16RevA.03 25-Dec-2016
                 3-Jul-2020 
 ******************************************
 %mem=16GB
 %nprocshared=4
 Will use up to    4 processors via shared memory.
 -------------------------------------------------
 # opt freq ub3lyp/6-31G(d,p) scf=(maxcycles=1024)
 -------------------------------------------------
 1/18=20,19=15,26=3,38=1/1,3;
 2/9=110,12=2,17=6,18=5,40=1/2;
 3/5=1,6=6,7=101,11=2,25=1,30=1,71=1,74=-5,116=2/1,2,3;
 4//1;
 5/5=2,7=1024,38=5/2;
 6/7=2,8=2,9=2,10=2,28=1/1;
 7//1,2,3,16;
 1/18=20,19=15,26=3/3(2);
 2/9=110/2;
 99//99;
 2/9=110/2;
 3/5=1,6=6,7=101,11=2,25=1,30=1,71=1,74=-5,116=2/1,2,3;
 4/5=5,16=3,69=1/1;
 5/5=2,7=1024,38=5/2;
 7//1,2,3,16;
 1/18=20,19=15,26=3/3(-5);
 2/9=110/2;
 6/7=2,8=2,9=2,10=2,19=2,28=1/1;
 99/9=1/99;
 ---------------
 something title
 ---------------
 Symbolic Z-matrix:
 Charge =  0 Multiplicity = 1
 N                    -1.83032  -0.61415  -0.06126 
 B                    -1.65186   0.75138  -0.26691 
 N                     1.83026  -0.61503   0.06041 
 B                     1.65162   0.75067   0.26702 
 H                     2.39923  -0.99354  -0.68131 
 H                    -2.19725   1.52493   0.46285 
 H                    -0.9749    1.11728  -1.18131 
 H                    -1.39779  -1.31747  -0.64128 
 H                    -2.40057  -0.99376   0.6799 
 H                     1.39842  -1.31868   0.64067 
 H                     0.97597   1.11571   1.18244 
 H                     2.19569   1.52447  -0.46332 
 
 Add virtual bond connecting atoms B2         and H11        Dist= 5.71D+00.
 Add virtual bond connecting atoms H7         and B4         Dist= 5.71D+00.
 Add virtual bond connecting atoms H7         and H11        Dist= 5.79D+00.
 Add virtual bond connecting atoms H8         and H10        Dist= 5.81D+00.

 GradGradGradGradGradGradGradGradGradGradGradGradGradGradGradGradGradGrad
 Berny optimization.
 Initialization pass.
                           ----------------------------
                           !    Initial Parameters    !
                           ! (Angstroms and Degrees)  !
 --------------------------                            --------------------------
 ! Name  Definition              Value          Derivative Info.                !
 --------------------------------------------------------------------------------
 ! R1    R(1,2)                  1.3924         estimate D2E/DX2                !
 ! R2    R(1,8)                  1.009          estimate D2E/DX2                !
 ! R3    R(1,9)                  1.0093         estimate D2E/DX2                !
 ! R4    R(2,6)                  1.1951         estimate D2E/DX2                !
 ! R5    R(2,7)                  1.1951         estimate D2E/DX2                !
 ! R6    R(2,11)                 3.0231         estimate D2E/DX2                !
 ! R7    R(3,4)                  1.3927         estimate D2E/DX2                !
 ! R8    R(3,5)                  1.0085         estimate D2E/DX2                !
 ! R9    R(3,10)                 1.0091         estimate D2E/DX2                !
 ! R10   R(4,7)                  3.0217         estimate D2E/DX2                !
 ! R11   R(4,11)                 1.1949         estimate D2E/DX2                !
 ! R12   R(4,12)                 1.1951         estimate D2E/DX2                !
 ! R13   R(7,11)                 3.0648         estimate D2E/DX2                !
 ! R14   R(8,10)                 3.0761         estimate D2E/DX2                !
 ! A1    A(2,1,8)              122.9376         estimate D2E/DX2                !
 ! A2    A(2,1,9)              123.3493         estimate D2E/DX2                !
 ! A3    A(8,1,9)              113.7131         estimate D2E/DX2                !
 ! A4    A(1,2,6)              119.0831         estimate D2E/DX2                !
 ! A5    A(1,2,7)              119.0685         estimate D2E/DX2                !
 ! A6    A(1,2,11)              99.1368         estimate D2E/DX2                !
 ! A7    A(6,2,7)              121.8373         estimate D2E/DX2                !
 ! A8    A(6,2,11)              91.4859         estimate D2E/DX2                !
 ! A9    A(4,3,5)              123.3314         estimate D2E/DX2                !
 ! A10   A(4,3,10)             122.9265         estimate D2E/DX2                !
 ! A11   A(5,3,10)             113.742          estimate D2E/DX2                !
 ! A12   A(3,4,7)               99.1695         estimate D2E/DX2                !
 ! A13   A(3,4,11)             119.0615         estimate D2E/DX2                !
 ! A14   A(3,4,12)             119.0695         estimate D2E/DX2                !
 ! A15   A(7,4,12)              91.3893         estimate D2E/DX2                !
 ! A16   A(11,4,12)            121.858          estimate D2E/DX2                !
 ! A17   A(2,7,4)               95.0766         estimate D2E/DX2                !
 ! A18   A(1,8,10)              98.6485         estimate D2E/DX2                !
 ! A19   A(3,10,8)              98.5744         estimate D2E/DX2                !
 ! A20   A(2,11,4)              95.0145         estimate D2E/DX2                !
 ! D1    D(8,1,2,6)           -179.9767         estimate D2E/DX2                !
 ! D2    D(8,1,2,7)              1.2134         estimate D2E/DX2                !
 ! D3    D(8,1,2,11)           -83.113          estimate D2E/DX2                !
 ! D4    D(9,1,2,6)             -0.1018         estimate D2E/DX2                !
 ! D5    D(9,1,2,7)           -178.9117         estimate D2E/DX2                !
 ! D6    D(9,1,2,11)            96.762          estimate D2E/DX2                !
 ! D7    D(2,1,8,10)            80.5429         estimate D2E/DX2                !
 ! D8    D(9,1,8,10)           -99.343          estimate D2E/DX2                !
 ! D9    D(1,2,7,4)            -81.9869         estimate D2E/DX2                !
 ! D10   D(6,2,7,4)             99.2373         estimate D2E/DX2                !
 ! D11   D(1,2,11,4)            82.5303         estimate D2E/DX2                !
 ! D12   D(6,2,11,4)          -157.6904         estimate D2E/DX2                !
 ! D13   D(5,3,4,7)             96.6725         estimate D2E/DX2                !
 ! D14   D(5,3,4,11)          -178.9106         estimate D2E/DX2                !
 ! D15   D(5,3,4,12)            -0.0944         estimate D2E/DX2                !
 ! D16   D(10,3,4,7)           -83.1814         estimate D2E/DX2                !
 ! D17   D(10,3,4,11)            1.2355         estimate D2E/DX2                !
 ! D18   D(10,3,4,12)         -179.9484         estimate D2E/DX2                !
 ! D19   D(4,3,10,8)            80.5552         estimate D2E/DX2                !
 ! D20   D(5,3,10,8)           -99.3115         estimate D2E/DX2                !
 ! D21   D(3,4,7,2)             82.5112         estimate D2E/DX2                !
 ! D22   D(12,4,7,2)          -157.7387         estimate D2E/DX2                !
 ! D23   D(3,4,11,2)           -82.0614         estimate D2E/DX2                !
 ! D24   D(12,4,11,2)           99.1569         estimate D2E/DX2                !
 ! D25   D(1,8,10,3)           -90.3239         estimate D2E/DX2                !
 --------------------------------------------------------------------------------
 Trust Radius=3.00D-01 FncErr=1.00D-07 GrdErr=1.00D-06 EigMax=2.50D+02 EigMin=1.00D-04
 Number of steps in this run=     69 maximum allowed number of steps=    100.
 GradGradGradGradGradGradGradGradGradGradGradGradGradGradGradGradGradGrad

                          Input orientation:                          
 ---------------------------------------------------------------------
 Center     Atomic      Atomic             Coordinates (Angstroms)
 Number     Number       Type             X           Y           Z
 ---------------------------------------------------------------------
      1          7           0       -1.830320   -0.614150   -0.061260
      2          5           0       -1.651860    0.751380   -0.266910
      3          7           0        1.830260   -0.615030    0.060410
      4          5           0        1.651620    0.750670    0.267020
      5          1           0        2.399230   -0.993540   -0.681310
      6          1           0       -2.197250    1.524930    0.462850
      7          1           0       -0.974900    1.117280   -1.181310
      8          1           0       -1.397790   -1.317470   -0.641280
      9          1           0       -2.400570   -0.993760    0.679900
     10          1           0        1.398420   -1.318680    0.640670
     11          1           0        0.975970    1.115710    1.182440
     12          1           0        2.195690    1.524470   -0.463320
 ---------------------------------------------------------------------
                    Distance matrix (angstroms):
                    1          2          3          4          5
     1  N    0.000000
     2  B    1.392412   0.000000
     3  N    3.662602   3.754913   0.000000
     4  B    3.754252   3.346351   1.392744   0.000000
     5  H    4.291561   4.430328   1.008536   2.121443   0.000000
     6  H    2.232710   1.195148   4.578452   3.930856   5.364646
     7  H    2.232511   1.195109   3.523023   3.021700   4.011273
     8  H    1.009041   2.117745   3.377291   3.794880   3.811023
     9  H    1.009261   2.121916   4.292683   4.430999   4.989085
    10  H    3.378436   3.796453   1.009114   2.118002   1.689665
    11  H    3.523417   3.023052   2.232537   1.194885   3.154072
    12  H    4.576473   3.929362   2.232777   1.195063   2.535611
                    6          7          8          9         10
     6  H    0.000000
     7  H    2.088918   0.000000
     8  H    3.152376   2.529521   0.000000
     9  H    2.536188   3.154858   1.689933   0.000000
    10  H    4.587655   3.858259   3.076067   3.813061   0.000000
    11  H    3.279420   3.064834   3.857597   4.012908   2.529473
    12  H    4.489511   3.276271   4.584909   5.364144   3.152449
                   11         12
    11  H    0.000000
    12  H    2.088858   0.000000
 Stoichiometry    B2H8N2
 Framework group  C1[X(B2H8N2)]
 Deg. of freedom    30
 Full point group                 C1      NOp   1
 Largest Abelian subgroup         C1      NOp   1
 Largest concise Abelian subgroup C1      NOp   1
                         Standard orientation:                         
 ---------------------------------------------------------------------
 Center     Atomic      Atomic             Coordinates (Angstroms)
 Number     Number       Type             X           Y           Z
 ---------------------------------------------------------------------
      1          7           0       -1.830833   -0.601066    0.030214
      2          5           0       -1.663211    0.764465   -0.184358
      3          7           0        1.831268   -0.600923   -0.030384
      4          5           0        1.662741    0.764777    0.184559
      5          1           0        2.362739   -0.979450   -0.799410
      6          1           0       -2.171838    1.538036    0.571463
      7          1           0       -1.032686    1.130336   -1.131385
      8          1           0       -1.427496   -1.304403   -0.570452
      9          1           0       -2.363395   -0.980658    0.798910
     10          1           0        1.429030   -1.304555    0.570795
     11          1           0        1.033368    1.129846    1.132380
     12          1           0        2.169583    1.538555   -0.572114
 ---------------------------------------------------------------------
 Rotational constants (GHZ):          12.1483597           2.6915409           2.3231375
 Standard basis: 6-31G(d,p) (6D, 7F)
 There are   100 symmetry adapted cartesian basis functions of A   symmetry.
 There are   100 symmetry adapted basis functions of A   symmetry.
   100 basis functions,   168 primitive gaussians,   100 cartesian basis functions
    16 alpha electrons       16 beta electrons
       nuclear repulsion energy       100.7708682320 Hartrees.
 NAtoms=   12 NActive=   12 NUniq=   12 SFac= 1.00D+00 NAtFMM=   60 NAOKFM=F Big=F
 Integral buffers will be    131072 words long.
 Raffenetti 2 integral format.
 Two-electron integral symmetry is turned on.
 One-electron integrals computed using PRISM.
 NBasis=   100 RedAO= T EigKep=  1.00D-02  NBF=   100
 NBsUse=   100 1.00D-06 EigRej= -1.00D+00 NBFU=   100
 ExpMin= 1.27D-01 ExpMax= 4.17D+03 ExpMxC= 6.27D+02 IAcc=3 IRadAn=         5 AccDes= 0.00D+00
 Harris functional with IExCor=  402 and IRadAn=       5 diagonalized for initial guess.
 HarFok:  IExCor=  402 AccDes= 0.00D+00 IRadAn=         5 IDoV= 1 UseB2=F ITyADJ=14
 ICtDFT=  3500011 ScaDFX=  1.000000  1.000000  1.000000  1.000000
 FoFCou: FMM=F IPFlag=           0 FMFlag=      100000 FMFlg1=           0
         NFxFlg=           0 DoJE=T BraDBF=F KetDBF=T FulRan=T
         wScrn=  0.000000 ICntrl=       500 IOpCl=  0 I1Cent=   200000004 NGrid=           0
         NMat0=    1 NMatS0=      1 NMatT0=    0 NMatD0=    1 NMtDS0=    0 NMtDT0=    0
 Petite list used in FoFCou.
 Initial guess <Sx>= 0.0000 <Sy>= 0.0000 <Sz>= 0.0000 <S**2>=-0.0000 S=-0.0000
 Keep R1 and R2 ints in memory in canonical form, NReq=29209870.
 Requested convergence on RMS density matrix=1.00D-08 within1024 cycles.
 Requested convergence on MAX density matrix=1.00D-06.
 Requested convergence on             energy=1.00D-06.
 No special actions if energy rises.
 Integral accuracy reduced to 1.0D-05 until final iterations.
 Initial convergence to 1.0D-05 achieved.  Increase integral accuracy.
 SCF Done:  E(UB3LYP) =  -164.095469207     A.U. after   11 cycles
            NFock= 11  Conv=0.56D-08     -V/T= 2.0100
 <Sx>= 0.0000 <Sy>= 0.0000 <Sz>= 0.0000 <S**2>=-0.0000 S=-0.0000
 <L.S>= 0.000000000000E+00
 Annihilation of the first spin contaminant:
 S**2 before annihilation    -0.0000,   after     0.0000

 **********************************************************************

            Population analysis using the SCF density.

 **********************************************************************

 Orbital symmetries:
 Alpha Orbitals:
       Occupied  (A) (A) (A) (A) (A) (A) (A) (A) (A) (A) (A) (A)
                 (A) (A) (A) (A)
       Virtual   (A) (A) (A) (A) (A) (A) (A) (A) (A) (A) (A) (A)
                 (A) (A) (A) (A) (A) (A) (A) (A) (A) (A) (A) (A)
                 (A) (A) (A) (A) (A) (A) (A) (A) (A) (A) (A) (A)
                 (A) (A) (A) (A) (A) (A) (A) (A) (A) (A) (A) (A)
                 (A) (A) (A) (A) (A) (A) (A) (A) (A) (A) (A) (A)
                 (A) (A) (A) (A) (A) (A) (A) (A) (A) (A) (A) (A)
                 (A) (A) (A) (A) (A) (A) (A) (A) (A) (A) (A) (A)
 Beta  Orbitals:
       Occupied  (A) (A) (A) (A) (A) (A) (A) (A) (A) (A) (A) (A)
                 (A) (A) (A) (A)
       Virtual   (A) (A) (A) (A) (A) (A) (A) (A) (A) (A) (A) (A)
                 (A) (A) (A) (A) (A) (A) (A) (A) (A) (A) (A) (A)
                 (A) (A) (A) (A) (A) (A) (A) (A) (A) (A) (A) (A)
                 (A) (A) (A) (A) (A) (A) (A) (A) (A) (A) (A) (A)
                 (A) (A) (A) (A) (A) (A) (A) (A) (A) (A) (A) (A)
                 (A) (A) (A) (A) (A) (A) (A) (A) (A) (A) (A) (A)
                 (A) (A) (A) (A) (A) (A) (A) (A) (A) (A) (A) (A)
 The electronic state is 1-A.
 Alpha  occ. eigenvalues --  -14.33258 -14.33251  -6.72804  -6.72801  -0.86303
 Alpha  occ. eigenvalues --   -0.86111  -0.51890  -0.51225  -0.50770  -0.50535
 Alpha  occ. eigenvalues --   -0.38669  -0.37637  -0.31095  -0.31027  -0.29772
 Alpha  occ. eigenvalues --   -0.28334
 Alpha virt. eigenvalues --    0.00930   0.05519   0.06758   0.09572   0.13363
 Alpha virt. eigenvalues --    0.14184   0.19116   0.20419   0.22834   0.25403
 Alpha virt. eigenvalues --    0.25411   0.27505   0.42904   0.43516   0.46019
 Alpha virt. eigenvalues --    0.47582   0.48154   0.56588   0.57580   0.70909
 Alpha virt. eigenvalues --    0.71119   0.73725   0.73734   0.78796   0.81665
 Alpha virt. eigenvalues --    0.83575   0.87002   0.87221   0.92814   0.93150
 Alpha virt. eigenvalues --    0.94550   0.94783   1.15709   1.16107   1.17058
 Alpha virt. eigenvalues --    1.17456   1.21895   1.22630   1.24124   1.32450
 Alpha virt. eigenvalues --    1.47541   1.47705   1.59190   1.60444   1.70604
 Alpha virt. eigenvalues --    1.71474   1.72563   1.75451   2.03333   2.04792
 Alpha virt. eigenvalues --    2.07804   2.07910   2.15041   2.16797   2.25393
 Alpha virt. eigenvalues --    2.27920   2.31126   2.31515   2.39451   2.39618
 Alpha virt. eigenvalues --    2.41943   2.43713   2.56436   2.56442   2.61941
 Alpha virt. eigenvalues --    2.63002   2.65482   2.65856   2.66857   2.66932
 Alpha virt. eigenvalues --    2.94343   2.94802   3.12267   3.13149   3.23385
 Alpha virt. eigenvalues --    3.23882   3.28161   3.28274   3.62469   3.62900
 Alpha virt. eigenvalues --    3.65777   3.68670   4.10767   4.12668
  Beta  occ. eigenvalues --  -14.33258 -14.33251  -6.72804  -6.72801  -0.86303
  Beta  occ. eigenvalues --   -0.86111  -0.51890  -0.51225  -0.50770  -0.50535
  Beta  occ. eigenvalues --   -0.38669  -0.37637  -0.31095  -0.31027  -0.29772
  Beta  occ. eigenvalues --   -0.28334
  Beta virt. eigenvalues --    0.00930   0.05519   0.06758   0.09572   0.13363
  Beta virt. eigenvalues --    0.14184   0.19116   0.20419   0.22834   0.25403
  Beta virt. eigenvalues --    0.25411   0.27505   0.42904   0.43516   0.46019
  Beta virt. eigenvalues --    0.47582   0.48154   0.56588   0.57580   0.70909
  Beta virt. eigenvalues --    0.71119   0.73725   0.73734   0.78796   0.81665
  Beta virt. eigenvalues --    0.83575   0.87002   0.87221   0.92814   0.93150
  Beta virt. eigenvalues --    0.94550   0.94783   1.15709   1.16107   1.17058
  Beta virt. eigenvalues --    1.17456   1.21895   1.22630   1.24124   1.32450
  Beta virt. eigenvalues --    1.47541   1.47705   1.59190   1.60444   1.70604
  Beta virt. eigenvalues --    1.71474   1.72563   1.75451   2.03333   2.04792
  Beta virt. eigenvalues --    2.07804   2.07910   2.15041   2.16797   2.25393
  Beta virt. eigenvalues --    2.27920   2.31126   2.31515   2.39451   2.39618
  Beta virt. eigenvalues --    2.41943   2.43713   2.56436   2.56442   2.61941
  Beta virt. eigenvalues --    2.63002   2.65482   2.65856   2.66857   2.66932
  Beta virt. eigenvalues --    2.94343   2.94802   3.12267   3.13149   3.23385
  Beta virt. eigenvalues --    3.23882   3.28161   3.28274   3.62469   3.62900
  Beta virt. eigenvalues --    3.65777   3.68670   4.10767   4.12668
          Condensed to atoms (all electrons):
               1          2          3          4          5          6
     1  N    6.382728   0.507335  -0.002245   0.001459  -0.000013  -0.027373
     2  B    0.507335   3.538234   0.001455   0.009009   0.000077   0.412682
     3  N   -0.002245   0.001455   6.382924   0.507199   0.356799   0.000048
     4  B    0.001459   0.009009   0.507199   3.538125  -0.035505  -0.000516
     5  H   -0.000013   0.000077   0.356799  -0.035505   0.453676  -0.000000
     6  H   -0.027373   0.412682   0.000048  -0.000516  -0.000000   0.719259
     7  H   -0.024866   0.408504  -0.000929   0.004478  -0.000020  -0.027566
     8  H    0.354300  -0.034887   0.001722   0.000137   0.000006   0.003736
     9  H    0.356653  -0.035507  -0.000013   0.000077  -0.000000  -0.004132
    10  H    0.001711   0.000135   0.354308  -0.034866  -0.031907   0.000005
    11  H   -0.000928   0.004459  -0.024872   0.408542   0.003671   0.000073
    12  H    0.000048  -0.000519  -0.027386   0.412699  -0.004122   0.000013
               7          8          9         10         11         12
     1  N   -0.024866   0.354300   0.356653   0.001711  -0.000928   0.000048
     2  B    0.408504  -0.034887  -0.035507   0.000135   0.004459  -0.000519
     3  N   -0.000929   0.001722  -0.000013   0.354308  -0.024872  -0.027386
     4  B    0.004478   0.000137   0.000077  -0.034866   0.408542   0.412699
     5  H   -0.000020   0.000006  -0.000000  -0.031907   0.003671  -0.004122
     6  H   -0.027566   0.003736  -0.004132   0.000005   0.000073   0.000013
     7  H    0.718978  -0.004430   0.003670   0.000024  -0.001497   0.000074
     8  H   -0.004430   0.455939  -0.031921   0.000251   0.000024   0.000005
     9  H    0.003670  -0.031921   0.453852   0.000006  -0.000020  -0.000001
    10  H    0.000024   0.000251   0.000006   0.455920  -0.004426   0.003734
    11  H   -0.001497   0.000024  -0.000020  -0.004426   0.718941  -0.027555
    12  H    0.000074   0.000005  -0.000001   0.003734  -0.027555   0.719213
          Atomic-Atomic Spin Densities.
               1          2          3          4          5          6
     1  N    0.000000  -0.000000   0.000000   0.000000   0.000000   0.000000
     2  B   -0.000000   0.000000  -0.000000   0.000000   0.000000   0.000000
     3  N    0.000000  -0.000000   0.000000  -0.000000   0.000000  -0.000000
     4  B    0.000000   0.000000  -0.000000   0.000000   0.000000   0.000000
     5  H    0.000000   0.000000   0.000000   0.000000  -0.000000  -0.000000
     6  H    0.000000   0.000000  -0.000000   0.000000  -0.000000  -0.000000
     7  H   -0.000000   0.000000   0.000000  -0.000000   0.000000   0.000000
     8  H    0.000000  -0.000000  -0.000000   0.000000  -0.000000  -0.000000
     9  H   -0.000000   0.000000   0.000000  -0.000000   0.000000  -0.000000
    10  H    0.000000  -0.000000  -0.000000  -0.000000  -0.000000  -0.000000
    11  H    0.000000   0.000000  -0.000000   0.000000  -0.000000  -0.000000
    12  H    0.000000  -0.000000  -0.000000   0.000000  -0.000000   0.000000
               7          8          9         10         11         12
     1  N   -0.000000   0.000000  -0.000000   0.000000   0.000000   0.000000
     2  B    0.000000  -0.000000   0.000000  -0.000000   0.000000  -0.000000
     3  N    0.000000  -0.000000   0.000000  -0.000000  -0.000000  -0.000000
     4  B   -0.000000   0.000000  -0.000000  -0.000000   0.000000   0.000000
     5  H    0.000000  -0.000000   0.000000  -0.000000  -0.000000  -0.000000
     6  H    0.000000  -0.000000  -0.000000  -0.000000  -0.000000   0.000000
     7  H   -0.000000   0.000000  -0.000000  -0.000000   0.000000  -0.000000
     8  H    0.000000  -0.000000   0.000000  -0.000000  -0.000000   0.000000
     9  H   -0.000000   0.000000  -0.000000   0.000000   0.000000   0.000000
    10  H   -0.000000  -0.000000   0.000000   0.000000  -0.000000   0.000000
    11  H    0.000000  -0.000000   0.000000  -0.000000  -0.000000  -0.000000
    12  H   -0.000000   0.000000   0.000000   0.000000  -0.000000  -0.000000
 Mulliken charges and spin densities:
               1          2
     1  N   -0.548809  -0.000000
     2  B    0.189024   0.000000
     3  N   -0.549010   0.000000
     4  B    0.189162   0.000000
     5  H    0.257339  -0.000000
     6  H   -0.076230  -0.000000
     7  H   -0.076418  -0.000000
     8  H    0.255118   0.000000
     9  H    0.257334  -0.000000
    10  H    0.255104  -0.000000
    11  H   -0.076411  -0.000000
    12  H   -0.076203  -0.000000
 Sum of Mulliken charges =  -0.00000   0.00000
 Mulliken charges and spin densities with hydrogens summed into heavy atoms:
               1          2
     1  N   -0.036357  -0.000000
     2  B    0.036376   0.000000
     3  N   -0.036567   0.000000
     4  B    0.036548   0.000000
 Electronic spatial extent (au):  <R**2>=            524.2182
 Charge=             -0.0000 electrons
 Dipole moment (field-independent basis, Debye):
    X=              0.0002    Y=             -3.8980    Z=             -0.0000  Tot=              3.8980
 Quadrupole moment (field-independent basis, Debye-Ang):
   XX=            -26.1789   YY=            -25.7581   ZZ=            -26.7593
   XY=              0.0041   XZ=             -2.5353   YZ=             -0.0011
 Traceless Quadrupole moment (field-independent basis, Debye-Ang):
   XX=              0.0532   YY=              0.4740   ZZ=             -0.5272
   XY=              0.0041   XZ=             -2.5353   YZ=             -0.0011
 Octapole moment (field-independent basis, Debye-Ang**2):
  XXX=             -0.0008  YYY=            -24.4347  ZZZ=             -0.0043  XYY=              0.0015
  XXY=            -17.5333  XXZ=              0.0008  XZZ=              0.0061  YZZ=             -8.1764
  YYZ=              0.0037  XYZ=              3.4206
 Hexadecapole moment (field-independent basis, Debye-Ang**3):
 XXXX=           -532.2990 YYYY=           -149.9210 ZZZZ=            -56.1475 XXXY=              0.0513
 XXXZ=            -26.4549 YYYX=              0.0090 YYYZ=             -0.0036 ZZZX=             -7.8374
 ZZZY=             -0.0011 XXYY=           -109.6112 XXZZ=            -90.8673 YYZZ=            -32.8475
 XXYZ=             -0.0151 YYXZ=             -1.8477 ZZXY=             -0.0039
 N-N= 1.007708682320D+02 E-N=-5.819527197776D+02  KE= 1.624691857035D+02
                          Isotropic Fermi Contact Couplings
        Atom                 a.u.       MegaHertz       Gauss      10(-4) cm-1
     1  N(14)              0.00000       0.00000       0.00000       0.00000
     2  B(11)              0.00000       0.00000       0.00000       0.00000
     3  N(14)              0.00000       0.00000       0.00000       0.00000
     4  B(11)              0.00000       0.00000       0.00000       0.00000
     5  H(1)               0.00000       0.00000       0.00000       0.00000
     6  H(1)               0.00000       0.00000       0.00000       0.00000
     7  H(1)               0.00000       0.00000       0.00000       0.00000
     8  H(1)               0.00000       0.00000       0.00000       0.00000
     9  H(1)              -0.00000      -0.00000      -0.00000      -0.00000
    10  H(1)              -0.00000      -0.00000      -0.00000      -0.00000
    11  H(1)               0.00000       0.00000       0.00000       0.00000
    12  H(1)               0.00000       0.00000       0.00000       0.00000
 --------------------------------------------------------
       Center         ----  Spin Dipole Couplings  ----
                      3XX-RR        3YY-RR        3ZZ-RR
 --------------------------------------------------------
     1   Atom        0.000000      0.000000      0.000000
     2   Atom        0.000000      0.000000      0.000000
     3   Atom        0.000000      0.000000      0.000000
     4   Atom        0.000000      0.000000      0.000000
     5   Atom        0.000000      0.000000      0.000000
     6   Atom        0.000000      0.000000      0.000000
     7   Atom        0.000000      0.000000      0.000000
     8   Atom        0.000000      0.000000      0.000000
     9   Atom        0.000000      0.000000      0.000000
    10   Atom        0.000000      0.000000      0.000000
    11   Atom        0.000000      0.000000      0.000000
    12   Atom        0.000000      0.000000      0.000000
 --------------------------------------------------------
                        XY            XZ            YZ
 --------------------------------------------------------
     1   Atom        0.000000      0.000000      0.000000
     2   Atom        0.000000      0.000000      0.000000
     3   Atom        0.000000      0.000000      0.000000
     4   Atom        0.000000      0.000000      0.000000
     5   Atom        0.000000      0.000000      0.000000
     6   Atom        0.000000      0.000000      0.000000
     7   Atom        0.000000      0.000000      0.000000
     8   Atom        0.000000      0.000000      0.000000
     9   Atom        0.000000      0.000000      0.000000
    10   Atom        0.000000      0.000000      0.000000
    11   Atom        0.000000      0.000000      0.000000
    12   Atom        0.000000      0.000000      0.000000
 --------------------------------------------------------


 ---------------------------------------------------------------------------------
              Anisotropic Spin Dipole Couplings in Principal Axis System
 ---------------------------------------------------------------------------------

       Atom             a.u.   MegaHertz   Gauss  10(-4) cm-1        Axes

              Baa     0.0000     0.000     0.000     0.000  1.0000  0.0000  0.0000
     1 N(14)  Bbb     0.0000     0.000     0.000     0.000 -0.0000  1.0000  0.0000
              Bcc     0.0000     0.000     0.000     0.000  0.0000  0.0000  1.0000
 
              Baa     0.0000     0.000     0.000     0.000  1.0000  0.0000  0.0000
     2 B(11)  Bbb     0.0000     0.000     0.000     0.000 -0.0000  1.0000  0.0000
              Bcc     0.0000     0.000     0.000     0.000  0.0000  0.0000  1.0000
 
              Baa     0.0000     0.000     0.000     0.000  1.0000  0.0000  0.0000
     3 N(14)  Bbb     0.0000     0.000     0.000     0.000 -0.0000  1.0000  0.0000
              Bcc     0.0000     0.000     0.000     0.000  0.0000  0.0000  1.0000
 
              Baa     0.0000     0.000     0.000     0.000  1.0000  0.0000  0.0000
     4 B(11)  Bbb     0.0000     0.000     0.000     0.000 -0.0000  1.0000  0.0000
              Bcc     0.0000     0.000     0.000     0.000  0.0000  0.0000  1.0000
 
              Baa     0.0000     0.000     0.000     0.000  1.0000  0.0000  0.0000
     5 H(1)   Bbb     0.0000     0.000     0.000     0.000 -0.0000  1.0000  0.0000
              Bcc     0.0000     0.000     0.000     0.000  0.0000  0.0000  1.0000
 
              Baa     0.0000     0.000     0.000     0.000  1.0000  0.0000  0.0000
     6 H(1)   Bbb     0.0000     0.000     0.000     0.000 -0.0000  1.0000  0.0000
              Bcc     0.0000     0.000     0.000     0.000  0.0000  0.0000  1.0000
 
              Baa     0.0000     0.000     0.000     0.000  1.0000  0.0000  0.0000
     7 H(1)   Bbb     0.0000     0.000     0.000     0.000 -0.0000  1.0000  0.0000
              Bcc     0.0000     0.000     0.000     0.000  0.0000  0.0000  1.0000
 
              Baa     0.0000     0.000     0.000     0.000  1.0000  0.0000  0.0000
     8 H(1)   Bbb     0.0000     0.000     0.000     0.000 -0.0000  1.0000  0.0000
              Bcc     0.0000     0.000     0.000     0.000  0.0000  0.0000  1.0000
 
              Baa     0.0000     0.000     0.000     0.000  1.0000  0.0000  0.0000
     9 H(1)   Bbb     0.0000     0.000     0.000     0.000 -0.0000  1.0000  0.0000
              Bcc     0.0000     0.000     0.000     0.000  0.0000  0.0000  1.0000
 
              Baa     0.0000     0.000     0.000     0.000  1.0000  0.0000  0.0000
    10 H(1)   Bbb     0.0000     0.000     0.000     0.000 -0.0000  1.0000  0.0000
              Bcc     0.0000     0.000     0.000     0.000  0.0000  0.0000  1.0000
 
              Baa     0.0000     0.000     0.000     0.000  1.0000  0.0000  0.0000
    11 H(1)   Bbb     0.0000     0.000     0.000     0.000 -0.0000  1.0000  0.0000
              Bcc     0.0000     0.000     0.000     0.000  0.0000  0.0000  1.0000
 
              Baa     0.0000     0.000     0.000     0.000  1.0000  0.0000  0.0000
    12 H(1)   Bbb     0.0000     0.000     0.000     0.000 -0.0000  1.0000  0.0000
              Bcc     0.0000     0.000     0.000     0.000  0.0000  0.0000  1.0000
 

 ---------------------------------------------------------------------------------

 Calling FoFJK, ICntrl=      2127 FMM=F ISym2X=0 I1Cent= 0 IOpClX= 1 NMat=1 NMatS=1 NMatT=0.
 ***** Axes restored to original set *****
 -------------------------------------------------------------------
 Center     Atomic                   Forces (Hartrees/Bohr)
 Number     Number              X              Y              Z
 -------------------------------------------------------------------
      1        7          -0.000566220   -0.000207644   -0.000067974
      2        5          -0.000998929    0.000187003   -0.000055464
      3        7           0.000138760    0.000272099    0.000604689
      4        5           0.001050762   -0.000132229   -0.000032017
      5        1           0.000259420   -0.000230381   -0.000308575
      6        1          -0.000089343   -0.000045890   -0.000013561
      7        1          -0.000139590   -0.000014795    0.000108567
      8        1          -0.000002116    0.000036334    0.000013961
      9        1           0.000092546    0.000046824   -0.000153907
     10        1           0.000057343    0.000072360   -0.000062457
     11        1           0.000087389    0.000029665   -0.000038644
     12        1           0.000109979   -0.000013346    0.000005382
 -------------------------------------------------------------------
 Cartesian Forces:  Max     0.001050762 RMS     0.000303400

 GradGradGradGradGradGradGradGradGradGradGradGradGradGradGradGradGradGrad
 Berny optimization.
 FormGI is forming the generalized inverse of G from B-inverse, IUseBI=4.
 Internal  Forces:  Max     0.000656610 RMS     0.000223663
 Search for a local minimum.
 Step number   1 out of a maximum of   69
 All quantities printed in internal units (Hartrees-Bohrs-Radians)
 Mixed Optimization -- En-DIIS/RFO-DIIS
 Second derivative matrix not updated -- first step.
 ITU=  0
     Eigenvalues ---    0.00618   0.00976   0.01994   0.02021   0.02209
     Eigenvalues ---    0.03037   0.03142   0.03749   0.04041   0.04837
     Eigenvalues ---    0.05381   0.06867   0.08526   0.08699   0.11892
     Eigenvalues ---    0.12794   0.14377   0.15304   0.16000   0.16000
     Eigenvalues ---    0.24282   0.24407   0.25023   0.25029   0.42748
     Eigenvalues ---    0.44675   0.46097   0.46218   0.46408   0.46837
 RFO step:  Lambda=-1.00131690D-04 EMin= 6.18387431D-03
 Linear search not attempted -- first point.
 Iteration  1 RMS(Cart)=  0.01284248 RMS(Int)=  0.00004334
 Iteration  2 RMS(Cart)=  0.00004214 RMS(Int)=  0.00001769
 Iteration  3 RMS(Cart)=  0.00000000 RMS(Int)=  0.00001769
 Variable       Old X    -DE/DX   Delta X   Delta X   Delta X     New X
                                 (Linear)    (Quad)   (Total)
    R1        2.63128   0.00010   0.00000   0.00029   0.00029   2.63157
    R2        1.90681   0.00010   0.00000   0.00003   0.00004   1.90685
    R3        1.90723  -0.00018   0.00000  -0.00040  -0.00040   1.90683
    R4        2.25850   0.00000   0.00000   0.00001   0.00001   2.25851
    R5        2.25843   0.00018   0.00000   0.00078   0.00077   2.25920
    R6        5.71274   0.00064   0.00000   0.04730   0.04729   5.76003
    R7        2.63191  -0.00012   0.00000  -0.00023  -0.00023   2.63168
    R8        1.90586   0.00046   0.00000   0.00099   0.00099   1.90685
    R9        1.90695   0.00003   0.00000  -0.00014  -0.00013   1.90682
   R10        5.71019   0.00066   0.00000   0.04741   0.04740   5.75758
   R11        2.25801   0.00027   0.00000   0.00115   0.00114   2.25915
   R12        2.25834   0.00004   0.00000   0.00015   0.00015   2.25849
   R13        5.79170  -0.00022   0.00000   0.02609   0.02611   5.81781
   R14        5.81292   0.00048   0.00000   0.03779   0.03779   5.85072
    A1        2.14567  -0.00008   0.00000  -0.00040  -0.00041   2.14526
    A2        2.15285   0.00006   0.00000   0.00034   0.00034   2.15319
    A3        1.98467   0.00002   0.00000   0.00005   0.00005   1.98472
    A4        2.07839   0.00003   0.00000  -0.00006  -0.00005   2.07834
    A5        2.07814  -0.00015   0.00000  -0.00007  -0.00009   2.07805
    A6        1.73026  -0.00001   0.00000   0.00280   0.00275   1.73301
    A7        2.12646   0.00012   0.00000   0.00020   0.00020   2.12666
    A8        1.59673   0.00026   0.00000   0.00227   0.00228   1.59901
    A9        2.15254   0.00008   0.00000   0.00056   0.00056   2.15310
   A10        2.14547  -0.00005   0.00000  -0.00038  -0.00039   2.14508
   A11        1.98517  -0.00004   0.00000  -0.00019  -0.00019   1.98498
   A12        1.73083   0.00002   0.00000   0.00287   0.00282   1.73366
   A13        2.07802  -0.00013   0.00000   0.00001   0.00000   2.07802
   A14        2.07815   0.00003   0.00000  -0.00001  -0.00000   2.07815
   A15        1.59504   0.00026   0.00000   0.00236   0.00237   1.59742
   A16        2.12682   0.00010   0.00000   0.00006   0.00006   2.12688
   A17        1.65940   0.00043   0.00000   0.00575   0.00572   1.66512
   A18        1.72174   0.00024   0.00000   0.00047   0.00047   1.72221
   A19        1.72045   0.00026   0.00000   0.00039   0.00039   1.72084
   A20        1.65832   0.00041   0.00000   0.00572   0.00569   1.66401
    D1       -3.14119   0.00011   0.00000   0.00557   0.00558  -3.13561
    D2        0.02118  -0.00005   0.00000   0.00206   0.00205   0.02322
    D3       -1.45059   0.00041   0.00000   0.00982   0.00982  -1.44077
    D4       -0.00178  -0.00004   0.00000   0.00085   0.00084  -0.00093
    D5       -3.12260  -0.00021   0.00000  -0.00267  -0.00268  -3.12528
    D6        1.68882   0.00026   0.00000   0.00510   0.00509   1.69391
    D7        1.40574  -0.00017   0.00000   0.00099   0.00095   1.40669
    D8       -1.73386  -0.00003   0.00000   0.00530   0.00526  -1.72860
    D9       -1.43094   0.00017   0.00000   0.00360   0.00361  -1.42733
   D10        1.73202   0.00001   0.00000  -0.00001  -0.00002   1.73200
   D11        1.44042  -0.00009   0.00000  -0.01410  -0.01413   1.42629
   D12       -2.75222  -0.00001   0.00000  -0.01337  -0.01338  -2.76560
   D13        1.68725   0.00027   0.00000   0.00511   0.00510   1.69235
   D14       -3.12258  -0.00020   0.00000  -0.00271  -0.00273  -3.12531
   D15       -0.00165  -0.00005   0.00000   0.00070   0.00069  -0.00095
   D16       -1.45179   0.00041   0.00000   0.00971   0.00971  -1.44208
   D17        0.02156  -0.00006   0.00000   0.00189   0.00188   0.02344
   D18       -3.14069   0.00009   0.00000   0.00529   0.00530  -3.13539
   D19        1.40595  -0.00014   0.00000   0.00114   0.00110   1.40705
   D20       -1.73331  -0.00001   0.00000   0.00533   0.00530  -1.72802
   D21        1.44009  -0.00008   0.00000  -0.01404  -0.01406   1.42603
   D22       -2.75306   0.00001   0.00000  -0.01323  -0.01324  -2.76630
   D23       -1.43224   0.00014   0.00000   0.00354   0.00354  -1.42870
   D24        1.73061  -0.00000   0.00000   0.00003   0.00002   1.73064
   D25       -1.57645  -0.00021   0.00000  -0.01345  -0.01348  -1.58993
         Item               Value     Threshold  Converged?
 Maximum Force            0.000657     0.000450     NO 
 RMS     Force            0.000224     0.000300     YES
 Maximum Displacement     0.029618     0.001800     NO 
 RMS     Displacement     0.012865     0.001200     NO 
 Predicted change in Energy=-5.059604D-05
 GradGradGradGradGradGradGradGradGradGradGradGradGradGradGradGradGradGrad

                          Input orientation:                          
 ---------------------------------------------------------------------
 Center     Atomic      Atomic             Coordinates (Angstroms)
 Number     Number       Type             X           Y           Z
 ---------------------------------------------------------------------
      1          7           0       -1.841586   -0.615046   -0.066980
      2          5           0       -1.667284    0.752298   -0.265039
      3          7           0        1.841442   -0.615800    0.066214
      4          5           0        1.666962    0.751451    0.265161
      5          1           0        2.408101   -1.000922   -0.674586
      6          1           0       -2.212746    1.520017    0.470809
      7          1           0       -0.990573    1.125371   -1.177258
      8          1           0       -1.404849   -1.313546   -0.649702
      9          1           0       -2.409174   -1.000779    0.672775
     10          1           0        1.405567   -1.314578    0.649218
     11          1           0        0.991453    1.123831    1.178516
     12          1           0        2.211187    1.519512   -0.471228
 ---------------------------------------------------------------------
                    Distance matrix (angstroms):
                    1          2          3          4          5
     1  N    0.000000
     2  B    1.392565   0.000000
     3  N    3.685436   3.780553   0.000000
     4  B    3.779886   3.376138   1.392623   0.000000
     5  H    4.310212   4.455365   1.009062   2.122080   0.000000
     6  H    2.232817   1.195154   4.600202   3.960444   5.386956
     7  H    2.232933   1.195519   3.549396   3.046782   4.040395
     8  H    1.009063   2.117676   3.396733   3.812769   3.825826
     9  H    1.009051   2.122069   4.310900   4.455484   5.002151
    10  H    3.397983   3.814479   1.009045   2.117617   1.689944
    11  H    3.549798   3.048076   2.232938   1.195491   3.155227
    12  H    4.598340   3.958999   2.232737   1.195143   2.536281
                    6          7          8          9         10
     6  H    0.000000
     7  H    2.089397   0.000000
     8  H    3.152352   2.529477   0.000000
     9  H    2.536492   3.155244   1.689804   0.000000
    10  H    4.599886   3.876964   3.096067   3.827697   0.000000
    11  H    3.305254   3.078653   3.876268   4.041535   2.529326
    12  H    4.523121   3.302287   4.597150   5.385940   3.152220
                   11         12
    11  H    0.000000
    12  H    2.089491   0.000000
 Stoichiometry    B2H8N2
 Framework group  C1[X(B2H8N2)]
 Deg. of freedom    30
 Full point group                 C1      NOp   1
 Largest Abelian subgroup         C1      NOp   1
 Largest concise Abelian subgroup C1      NOp   1
                         Standard orientation:                         
 ---------------------------------------------------------------------
 Center     Atomic      Atomic             Coordinates (Angstroms)
 Number     Number       Type             X           Y           Z
 ---------------------------------------------------------------------
      1          7           0       -1.842305   -0.601876    0.027538
      2          5           0       -1.678746    0.765465   -0.179504
      3          7           0        1.842718   -0.601578   -0.027623
      4          5           0        1.678235    0.765676    0.179641
      5          1           0        2.370898   -0.986737   -0.796314
      6          1           0       -2.186120    1.533225    0.583063
      7          1           0       -1.049636    1.138486   -1.125200
      8          1           0       -1.435710   -1.300407   -0.576566
      9          1           0       -2.371242   -0.987573    0.795423
     10          1           0        1.437402   -1.300325    0.577061
     11          1           0        1.050168    1.138108    1.126227
     12          1           0        2.183903    1.533696   -0.583781
 ---------------------------------------------------------------------
 Rotational constants (GHZ):          12.1394164           2.6547737           2.2945391
 Standard basis: 6-31G(d,p) (6D, 7F)
 There are   100 symmetry adapted cartesian basis functions of A   symmetry.
 There are   100 symmetry adapted basis functions of A   symmetry.
   100 basis functions,   168 primitive gaussians,   100 cartesian basis functions
    16 alpha electrons       16 beta electrons
       nuclear repulsion energy       100.5285451982 Hartrees.
 NAtoms=   12 NActive=   12 NUniq=   12 SFac= 1.00D+00 NAtFMM=   60 NAOKFM=F Big=F
 Integral buffers will be    131072 words long.
 Raffenetti 2 integral format.
 Two-electron integral symmetry is turned on.
 One-electron integrals computed using PRISM.
 NBasis=   100 RedAO= T EigKep=  1.01D-02  NBF=   100
 NBsUse=   100 1.00D-06 EigRej= -1.00D+00 NBFU=   100
 Initial guess from the checkpoint file:  "/scratch/1311853/Gau-23921.chk"
 B after Tr=    -0.000000   -0.000000   -0.000000
         Rot=    1.000000    0.000017   -0.000390   -0.000005 Ang=   0.04 deg.
 Initial guess <Sx>= 0.0000 <Sy>= 0.0000 <Sz>= 0.0000 <S**2>=-0.0000 S=-0.0000
 ExpMin= 1.27D-01 ExpMax= 4.17D+03 ExpMxC= 6.27D+02 IAcc=2 IRadAn=         4 AccDes= 0.00D+00
 Harris functional with IExCor=  402 and IRadAn=       4 diagonalized for initial guess.
 HarFok:  IExCor=  402 AccDes= 0.00D+00 IRadAn=         4 IDoV= 1 UseB2=F ITyADJ=14
 ICtDFT=  3500011 ScaDFX=  1.000000  1.000000  1.000000  1.000000
 FoFCou: FMM=F IPFlag=           0 FMFlag=      100000 FMFlg1=           0
         NFxFlg=           0 DoJE=T BraDBF=F KetDBF=T FulRan=T
         wScrn=  0.000000 ICntrl=       500 IOpCl=  0 I1Cent=   200000004 NGrid=           0
         NMat0=    1 NMatS0=      1 NMatT0=    0 NMatD0=    1 NMtDS0=    0 NMtDT0=    0
 Petite list used in FoFCou.
 Keep R1 and R2 ints in memory in canonical form, NReq=29209870.
 Requested convergence on RMS density matrix=1.00D-08 within1024 cycles.
 Requested convergence on MAX density matrix=1.00D-06.
 Requested convergence on             energy=1.00D-06.
 No special actions if energy rises.
 Integral accuracy reduced to 1.0D-05 until final iterations.
 Initial convergence to 1.0D-05 achieved.  Increase integral accuracy.
 SCF Done:  E(UB3LYP) =  -164.095562562     A.U. after    8 cycles
            NFock=  8  Conv=0.42D-08     -V/T= 2.0100
 <Sx>= 0.0000 <Sy>= 0.0000 <Sz>= 0.0000 <S**2>= 0.0000 S= 0.0000
 <L.S>= 0.000000000000E+00
 Annihilation of the first spin contaminant:
 S**2 before annihilation     0.0000,   after     0.0000
 Calling FoFJK, ICntrl=      2127 FMM=F ISym2X=0 I1Cent= 0 IOpClX= 1 NMat=1 NMatS=1 NMatT=0.
 ***** Axes restored to original set *****
 -------------------------------------------------------------------
 Center     Atomic                   Forces (Hartrees/Bohr)
 Number     Number              X              Y              Z
 -------------------------------------------------------------------
      1        7          -0.000280235    0.000001315   -0.000222507
      2        5          -0.000669414    0.000114383   -0.000026556
      3        7           0.000269484    0.000067515    0.000220671
      4        5           0.000686441    0.000061125   -0.000001547
      5        1           0.000002595   -0.000022808    0.000028291
      6        1          -0.000186048   -0.000041597   -0.000088665
      7        1          -0.000282383   -0.000087253    0.000219723
      8        1          -0.000092327    0.000025265   -0.000023814
      9        1          -0.000015974   -0.000010591   -0.000010247
     10        1           0.000105584   -0.000004131    0.000021647
     11        1           0.000277038   -0.000077119   -0.000214117
     12        1           0.000185237   -0.000026104    0.000097121
 -------------------------------------------------------------------
 Cartesian Forces:  Max     0.000686441 RMS     0.000208615

 GradGradGradGradGradGradGradGradGradGradGradGradGradGradGradGradGradGrad
 Berny optimization.
 Using GEDIIS/GDIIS optimizer.
 FormGI is forming the generalized inverse of G from B-inverse, IUseBI=4.
 Internal  Forces:  Max     0.000583368 RMS     0.000185258
 Search for a local minimum.
 Step number   2 out of a maximum of   69
 All quantities printed in internal units (Hartrees-Bohrs-Radians)
 Mixed Optimization -- En-DIIS/RFO-DIIS
 Swapping is turned off.
 Update second derivatives using D2CorX and points    1    2
 DE= -9.34D-05 DEPred=-5.06D-05 R= 1.85D+00
 TightC=F SS=  1.41D+00  RLast= 8.96D-02 DXNew= 5.0454D-01 2.6885D-01
 Trust test= 1.85D+00 RLast= 8.96D-02 DXMaxT set to 3.00D-01
 ITU=  1  0
     Eigenvalues ---    0.00139   0.00624   0.01993   0.02014   0.02122
     Eigenvalues ---    0.03039   0.03136   0.03753   0.04296   0.04831
     Eigenvalues ---    0.05326   0.06828   0.07417   0.08725   0.11894
     Eigenvalues ---    0.12806   0.14376   0.15218   0.16000   0.16011
     Eigenvalues ---    0.24420   0.25011   0.25023   0.25240   0.42887
     Eigenvalues ---    0.44665   0.46112   0.46403   0.46822   0.48068
 En-DIIS/RFO-DIIS/Sim-DIIS IScMMF=       -3 using points:     2    1
 RFO step:  Lambda=-4.96524920D-04.
 DidBck=F Rises=F RFO-DIIS coefs:    3.00000   -2.00000
 Maximum step size (   0.300) exceeded in Quadratic search.
    -- Step size scaled by   0.586
 Iteration  1 RMS(Cart)=  0.04621724 RMS(Int)=  0.00055976
 Iteration  2 RMS(Cart)=  0.00054874 RMS(Int)=  0.00024048
 Iteration  3 RMS(Cart)=  0.00000030 RMS(Int)=  0.00024048
 Variable       Old X    -DE/DX   Delta X   Delta X   Delta X     New X
                                 (Linear)    (Quad)   (Total)
    R1        2.63157  -0.00004   0.00034  -0.00031  -0.00001   2.63155
    R2        1.90685   0.00007   0.00005  -0.00004   0.00019   1.90704
    R3        1.90683   0.00001  -0.00047   0.00030  -0.00016   1.90667
    R4        2.25851   0.00000   0.00001   0.00004   0.00006   2.25857
    R5        2.25920  -0.00004   0.00091  -0.00085  -0.00006   2.25915
    R6        5.76003   0.00058   0.05547   0.11546   0.17072   5.93075
    R7        2.63168  -0.00007  -0.00027  -0.00021  -0.00053   2.63115
    R8        1.90685  -0.00001   0.00117  -0.00073   0.00043   1.90728
    R9        1.90682   0.00008  -0.00015   0.00015   0.00019   1.90700
   R10        5.75758   0.00058   0.05559   0.11545   0.17084   5.92843
   R11        2.25915  -0.00003   0.00134  -0.00097   0.00026   2.25941
   R12        2.25849   0.00001   0.00018   0.00001   0.00019   2.25869
   R13        5.81781  -0.00019   0.03063   0.06588   0.09684   5.91466
   R14        5.85072   0.00043   0.04433   0.09960   0.14400   5.99472
    A1        2.14526  -0.00003  -0.00048  -0.00015  -0.00074   2.14452
    A2        2.15319   0.00002   0.00040   0.00016   0.00056   2.15375
    A3        1.98472   0.00000   0.00006  -0.00006   0.00002   1.98474
    A4        2.07834   0.00003  -0.00006   0.00036   0.00042   2.07877
    A5        2.07805  -0.00014  -0.00010  -0.00060  -0.00085   2.07720
    A6        1.73301  -0.00001   0.00322   0.00663   0.00920   1.74221
    A7        2.12666   0.00011   0.00023   0.00026   0.00050   2.12716
    A8        1.59901   0.00029   0.00268   0.01048   0.01332   1.61233
    A9        2.15310   0.00003   0.00065   0.00024   0.00090   2.15400
   A10        2.14508  -0.00001  -0.00045   0.00026  -0.00030   2.14478
   A11        1.98498  -0.00002  -0.00022  -0.00054  -0.00075   1.98423
   A12        1.73366  -0.00001   0.00331   0.00661   0.00926   1.74291
   A13        2.07802  -0.00015   0.00000  -0.00071  -0.00086   2.07716
   A14        2.07815   0.00004  -0.00000   0.00079   0.00091   2.07906
   A15        1.59742   0.00029   0.00278   0.01056   0.01349   1.61091
   A16        2.12688   0.00010   0.00007  -0.00006   0.00002   2.12690
   A17        1.66512   0.00036   0.00671   0.01324   0.01963   1.68475
   A18        1.72221   0.00017   0.00055  -0.00005   0.00052   1.72273
   A19        1.72084   0.00017   0.00046  -0.00028   0.00021   1.72105
   A20        1.66401   0.00036   0.00668   0.01325   0.01961   1.68361
    D1       -3.13561   0.00001   0.00654   0.00621   0.01282  -3.12279
    D2        0.02322  -0.00004   0.00240   0.00476   0.00701   0.03024
    D3       -1.44077   0.00036   0.01152   0.02240   0.03389  -1.40688
    D4       -0.00093  -0.00009   0.00099  -0.00245  -0.00150  -0.00243
    D5       -3.12528  -0.00014  -0.00315  -0.00390  -0.00731  -3.13259
    D6        1.69391   0.00025   0.00597   0.01374   0.01957   1.71347
    D7        1.40669  -0.00010   0.00111   0.00214   0.00267   1.40935
    D8       -1.72860  -0.00001   0.00617   0.01004   0.01573  -1.71288
    D9       -1.42733   0.00011   0.00424   0.00691   0.01127  -1.41606
   D10        1.73200   0.00006  -0.00002   0.00541   0.00530   1.73730
   D11        1.42629  -0.00008  -0.01657  -0.03236  -0.04934   1.37696
   D12       -2.76560   0.00001  -0.01569  -0.02901  -0.04478  -2.81038
   D13        1.69235   0.00026   0.00598   0.01382   0.01966   1.71201
   D14       -3.12531  -0.00014  -0.00320  -0.00383  -0.00728  -3.13259
   D15       -0.00095  -0.00009   0.00081  -0.00253  -0.00176  -0.00272
   D16       -1.44208   0.00036   0.01138   0.02238   0.03374  -1.40835
   D17        0.02344  -0.00004   0.00220   0.00473   0.00680   0.03024
   D18       -3.13539   0.00001   0.00622   0.00603   0.01232  -3.12307
   D19        1.40705  -0.00011   0.00128   0.00194   0.00264   1.40969
   D20       -1.72802  -0.00001   0.00621   0.00975   0.01547  -1.71254
   D21        1.42603  -0.00009  -0.01650  -0.03249  -0.04939   1.37664
   D22       -2.76630   0.00002  -0.01553  -0.02870  -0.04431  -2.81061
   D23       -1.42870   0.00011   0.00416   0.00691   0.01120  -1.41750
   D24        1.73064   0.00006   0.00003   0.00557   0.00551   1.73615
   D25       -1.58993  -0.00015  -0.01581  -0.02980  -0.04597  -1.63589
         Item               Value     Threshold  Converged?
 Maximum Force            0.000583     0.000450     NO 
 RMS     Force            0.000185     0.000300     YES
 Maximum Displacement     0.110516     0.001800     NO 
 RMS     Displacement     0.046536     0.001200     NO 
 Predicted change in Energy=-2.414641D-04
 GradGradGradGradGradGradGradGradGradGradGradGradGradGradGradGradGradGrad

                          Input orientation:                          
 ---------------------------------------------------------------------
 Center     Atomic      Atomic             Coordinates (Angstroms)
 Number     Number       Type             X           Y           Z
 ---------------------------------------------------------------------
      1          7           0       -1.882492   -0.617625   -0.086791
      2          5           0       -1.722034    0.755101   -0.257356
      3          7           0        1.882253   -0.618285    0.086057
      4          5           0        1.721679    0.754121    0.257334
      5          1           0        2.440786   -1.025006   -0.649666
      6          1           0       -2.271204    1.502679    0.496306
      7          1           0       -1.047965    1.152219   -1.161304
      8          1           0       -1.432857   -1.299479   -0.679509
      9          1           0       -2.441850   -1.024420    0.647815
     10          1           0        1.433793   -1.300667    0.679023
     11          1           0        1.048721    1.150717    1.162525
     12          1           0        2.269670    1.502454   -0.496532
 ---------------------------------------------------------------------
                    Distance matrix (angstroms):
                    1          2          3          4          5
     1  N    0.000000
     2  B    1.392557   0.000000
     3  N    3.768710   3.872339   0.000000
     4  B    3.871712   3.481963   1.392343   0.000000
     5  H    4.378757   4.544421   1.009291   2.122512   0.000000
     6  H    2.233112   1.195185   4.681666   4.069467   5.468573
     7  H    2.232343   1.195488   3.643731   3.137188   4.144088
     8  H    1.009164   2.117342   3.469880   3.878924   3.883469
     9  H    1.008965   2.122302   4.379313   4.544300   5.052087
    10  H    3.471421   3.881010   1.009143   2.117275   1.689804
    11  H    3.644150   3.138417   2.232247   1.195630   3.155258
    12  H    4.680071   4.068101   2.233168   1.195245   2.537870
                    6          7          8          9         10
     6  H    0.000000
     7  H    2.089690   0.000000
     8  H    3.152373   2.528060   0.000000
     9  H    2.537382   3.154929   1.689826   0.000000
    10  H    4.649639   3.944943   3.172270   3.885601   0.000000
    11  H    3.404354   3.129901   3.943955   4.144904   2.528109
    12  H    4.648146   3.401660   4.646829   5.467453   3.152476
                   11         12
    11  H    0.000000
    12  H    2.089715   0.000000
 Stoichiometry    B2H8N2
 Framework group  C1[X(B2H8N2)]
 Deg. of freedom    30
 Full point group                 C1      NOp   1
 Largest Abelian subgroup         C1      NOp   1
 Largest concise Abelian subgroup C1      NOp   1
                         Standard orientation:                         
 ---------------------------------------------------------------------
 Center     Atomic      Atomic             Coordinates (Angstroms)
 Number     Number       Type             X           Y           Z
 ---------------------------------------------------------------------
      1          7           0       -1.884091   -0.604197    0.017781
      2          5           0       -1.733703    0.768531   -0.161713
      3          7           0        1.884451   -0.603791   -0.017825
      4          5           0        1.733203    0.768615    0.161753
      5          1           0        2.401560   -1.010540   -0.783215
      6          1           0       -2.240568    1.516145    0.620992
      7          1           0       -1.110767    1.165609   -1.101645
      8          1           0       -1.467727   -1.286075   -0.598738
      9          1           0       -2.401854   -1.010964    0.782288
     10          1           0        1.469664   -1.286148    0.599190
     11          1           0        1.111218    1.165249    1.102682
     12          1           0        2.238453    1.516911   -0.621436
 ---------------------------------------------------------------------
 Rotational constants (GHZ):          12.1180143           2.5276639           2.1954543
 Standard basis: 6-31G(d,p) (6D, 7F)
 There are   100 symmetry adapted cartesian basis functions of A   symmetry.
 There are   100 symmetry adapted basis functions of A   symmetry.
   100 basis functions,   168 primitive gaussians,   100 cartesian basis functions
    16 alpha electrons       16 beta electrons
       nuclear repulsion energy        99.6940503997 Hartrees.
 NAtoms=   12 NActive=   12 NUniq=   12 SFac= 1.00D+00 NAtFMM=   60 NAOKFM=F Big=F
 Integral buffers will be    131072 words long.
 Raffenetti 2 integral format.
 Two-electron integral symmetry is turned on.
 One-electron integrals computed using PRISM.
 NBasis=   100 RedAO= T EigKep=  1.03D-02  NBF=   100
 NBsUse=   100 1.00D-06 EigRej= -1.00D+00 NBFU=   100
 Initial guess from the checkpoint file:  "/scratch/1311853/Gau-23921.chk"
 B after Tr=    -0.000000    0.000000   -0.000000
         Rot=    0.999999    0.000001   -0.001266    0.000001 Ang=   0.15 deg.
 Initial guess <Sx>= 0.0000 <Sy>= 0.0000 <Sz>= 0.0000 <S**2>=-0.0000 S=-0.0000
 ExpMin= 1.27D-01 ExpMax= 4.17D+03 ExpMxC= 6.27D+02 IAcc=2 IRadAn=         4 AccDes= 0.00D+00
 Harris functional with IExCor=  402 and IRadAn=       4 diagonalized for initial guess.
 HarFok:  IExCor=  402 AccDes= 0.00D+00 IRadAn=         4 IDoV= 1 UseB2=F ITyADJ=14
 ICtDFT=  3500011 ScaDFX=  1.000000  1.000000  1.000000  1.000000
 FoFCou: FMM=F IPFlag=           0 FMFlag=      100000 FMFlg1=           0
         NFxFlg=           0 DoJE=T BraDBF=F KetDBF=T FulRan=T
         wScrn=  0.000000 ICntrl=       500 IOpCl=  0 I1Cent=   200000004 NGrid=           0
         NMat0=    1 NMatS0=      1 NMatT0=    0 NMatD0=    1 NMtDS0=    0 NMtDT0=    0
 Petite list used in FoFCou.
 Keep R1 and R2 ints in memory in canonical form, NReq=29209870.
 Requested convergence on RMS density matrix=1.00D-08 within1024 cycles.
 Requested convergence on MAX density matrix=1.00D-06.
 Requested convergence on             energy=1.00D-06.
 No special actions if energy rises.
 Integral accuracy reduced to 1.0D-05 until final iterations.
 Initial convergence to 1.0D-05 achieved.  Increase integral accuracy.
 SCF Done:  E(UB3LYP) =  -164.095817983     A.U. after    9 cycles
            NFock=  9  Conv=0.79D-08     -V/T= 2.0100
 <Sx>= 0.0000 <Sy>= 0.0000 <Sz>= 0.0000 <S**2>=-0.0000 S=-0.0000
 <L.S>= 0.000000000000E+00
 Annihilation of the first spin contaminant:
 S**2 before annihilation    -0.0000,   after     0.0000
 Calling FoFJK, ICntrl=      2127 FMM=F ISym2X=0 I1Cent= 0 IOpClX= 1 NMat=1 NMatS=1 NMatT=0.
 ***** Axes restored to original set *****
 -------------------------------------------------------------------
 Center     Atomic                   Forces (Hartrees/Bohr)
 Number     Number              X              Y              Z
 -------------------------------------------------------------------
      1        7           0.000267457    0.000088963   -0.000139877
      2        5          -0.000193979    0.000071478    0.000113451
      3        7          -0.000075108   -0.000228483   -0.000123547
      4        5           0.000157123    0.000287975   -0.000036074
      5        1          -0.000053955    0.000104232    0.000153134
      6        1          -0.000352995   -0.000060099   -0.000189258
      7        1          -0.000286320   -0.000076911    0.000167634
      8        1          -0.000333564    0.000021408   -0.000095142
      9        1          -0.000090414   -0.000043544    0.000043304
     10        1           0.000307420    0.000029177    0.000128955
     11        1           0.000314981   -0.000101021   -0.000214203
     12        1           0.000339352   -0.000093175    0.000191622
 -------------------------------------------------------------------
 Cartesian Forces:  Max     0.000352995 RMS     0.000183672

 GradGradGradGradGradGradGradGradGradGradGradGradGradGradGradGradGradGrad
 Berny optimization.
 Using GEDIIS/GDIIS optimizer.
 FormGI is forming the generalized inverse of G from B-inverse, IUseBI=4.
 Internal  Forces:  Max     0.000366953 RMS     0.000139602
 Search for a local minimum.
 Step number   3 out of a maximum of   69
 All quantities printed in internal units (Hartrees-Bohrs-Radians)
 Mixed Optimization -- En-DIIS/RFO-DIIS
 Swapping is turned off.
 Update second derivatives using D2CorX and points    1    2    3
 DE= -2.55D-04 DEPred=-2.41D-04 R= 1.06D+00
 TightC=F SS=  1.41D+00  RLast= 3.24D-01 DXNew= 5.0454D-01 9.7257D-01
 Trust test= 1.06D+00 RLast= 3.24D-01 DXMaxT set to 5.05D-01
 ITU=  1  1  0
     Eigenvalues ---    0.00107   0.00628   0.01993   0.02005   0.02073
     Eigenvalues ---    0.03042   0.03151   0.03764   0.04479   0.04812
     Eigenvalues ---    0.05362   0.06705   0.07373   0.08807   0.11900
     Eigenvalues ---    0.12830   0.14372   0.15241   0.15999   0.16017
     Eigenvalues ---    0.24483   0.25019   0.25023   0.25446   0.43070
     Eigenvalues ---    0.44680   0.46113   0.46398   0.46833   0.48257
 En-DIIS/RFO-DIIS/Sim-DIIS IScMMF=       -3 using points:     3    2    1
 RFO step:  Lambda=-2.89146412D-04.
 DIIS inversion failure, remove point   3.
 RFO-DIIS uses    2 points instead of    3
 DidBck=F Rises=F RFO-DIIS coefs:    2.77128   -1.77128    0.00000
 Maximum step size (   0.505) exceeded in Quadratic search.
    -- Step size scaled by   0.944
 Iteration  1 RMS(Cart)=  0.06352598 RMS(Int)=  0.01510209
 Iteration  2 RMS(Cart)=  0.01634170 RMS(Int)=  0.00093301
 Iteration  3 RMS(Cart)=  0.00005736 RMS(Int)=  0.00093181
 Iteration  4 RMS(Cart)=  0.00000005 RMS(Int)=  0.00093181
 Variable       Old X    -DE/DX   Delta X   Delta X   Delta X     New X
                                 (Linear)    (Quad)   (Total)
    R1        2.63155  -0.00008  -0.00002  -0.00018  -0.00032   2.63123
    R2        1.90704  -0.00004   0.00032  -0.00058   0.00045   1.90750
    R3        1.90667   0.00010  -0.00027   0.00033   0.00006   1.90672
    R4        2.25857   0.00001   0.00010   0.00003   0.00012   2.25870
    R5        2.25915  -0.00011  -0.00010  -0.00012  -0.00059   2.25856
    R6        5.93075   0.00037   0.28534   0.00042   0.28489   6.21564
    R7        2.63115   0.00007  -0.00088   0.00060  -0.00041   2.63074
    R8        1.90728  -0.00018   0.00072  -0.00048   0.00024   1.90752
    R9        1.90700  -0.00002   0.00031  -0.00056   0.00045   1.90746
   R10        5.92843   0.00036   0.28554   0.00038   0.28506   6.21348
   R11        2.25941  -0.00017   0.00044  -0.00058  -0.00051   2.25891
   R12        2.25869  -0.00002   0.00032  -0.00023   0.00009   2.25878
   R13        5.91466  -0.00008   0.16186   0.00264   0.16595   6.08061
   R14        5.99472   0.00028   0.24068   0.00362   0.24456   6.23928
    A1        2.14452   0.00006  -0.00123   0.00151  -0.00012   2.14440
    A2        2.15375  -0.00003   0.00094  -0.00067   0.00032   2.15408
    A3        1.98474  -0.00003   0.00003  -0.00070  -0.00056   1.98418
    A4        2.07877  -0.00000   0.00071  -0.00075   0.00039   2.07915
    A5        2.07720  -0.00012  -0.00143   0.00097  -0.00097   2.07623
    A6        1.74221  -0.00004   0.01537  -0.00142   0.01141   1.75362
    A7        2.12716   0.00012   0.00084  -0.00029   0.00062   2.12778
    A8        1.61233   0.00031   0.02226   0.00603   0.02885   1.64118
    A9        2.15400  -0.00004   0.00150  -0.00107   0.00048   2.15448
   A10        2.14478   0.00002  -0.00050   0.00094   0.00005   2.14483
   A11        1.98423   0.00002  -0.00125   0.00027  -0.00087   1.98337
   A12        1.74291  -0.00005   0.01547  -0.00152   0.01141   1.75432
   A13        2.07716  -0.00011  -0.00144   0.00118  -0.00078   2.07638
   A14        2.07906  -0.00002   0.00152  -0.00141   0.00054   2.07960
   A15        1.61091   0.00031   0.02255   0.00578   0.02887   1.63978
   A16        2.12690   0.00013   0.00004   0.00017   0.00027   2.12718
   A17        1.68475   0.00020   0.03281  -0.00126   0.03035   1.71510
   A18        1.72273   0.00006   0.00088  -0.00278  -0.00173   1.72101
   A19        1.72105   0.00005   0.00035  -0.00268  -0.00214   1.71891
   A20        1.68361   0.00021   0.03277  -0.00118   0.03039   1.71400
    D1       -3.12279  -0.00019   0.02143  -0.01134   0.01034  -3.11245
    D2        0.03024  -0.00008   0.01172  -0.00479   0.00634   0.03658
    D3       -1.40688   0.00016   0.05664  -0.00530   0.05120  -1.35568
    D4       -0.00243  -0.00014  -0.00251  -0.00285  -0.00552  -0.00795
    D5       -3.13259  -0.00003  -0.01221   0.00370  -0.00953   3.14107
    D6        1.71347   0.00021   0.03270   0.00319   0.03534   1.74881
    D7        1.40935  -0.00000   0.00446   0.00310   0.00528   1.41463
    D8       -1.71288  -0.00005   0.02628  -0.00464   0.01973  -1.69315
    D9       -1.41606   0.00007   0.01884   0.00137   0.02074  -1.39532
   D10        1.73730   0.00018   0.00885   0.00811   0.01662   1.75392
   D11        1.37696  -0.00007  -0.08246   0.00057  -0.08340   1.29356
   D12       -2.81038  -0.00001  -0.07485   0.00095  -0.07413  -2.88451
   D13        1.71201   0.00020   0.03286   0.00322   0.03550   1.74751
   D14       -3.13259  -0.00004  -0.01217   0.00376  -0.00943   3.14117
   D15       -0.00272  -0.00013  -0.00294  -0.00231  -0.00543  -0.00814
   D16       -1.40835   0.00015   0.05639  -0.00541   0.05083  -1.35751
   D17        0.03024  -0.00008   0.01136  -0.00486   0.00590   0.03614
   D18       -3.12307  -0.00018   0.02059  -0.01094   0.00990  -3.11317
   D19        1.40969  -0.00002   0.00442   0.00323   0.00536   1.41505
   D20       -1.71254  -0.00006   0.02586  -0.00462   0.01931  -1.69323
   D21        1.37664  -0.00007  -0.08255   0.00081  -0.08325   1.29338
   D22       -2.81061  -0.00003  -0.07406   0.00044  -0.07384  -2.88445
   D23       -1.41750   0.00008   0.01872   0.00153   0.02079  -1.39671
   D24        1.73615   0.00018   0.00921   0.00779   0.01667   1.75282
   D25       -1.63589  -0.00005  -0.07683   0.00286  -0.07524  -1.71113
         Item               Value     Threshold  Converged?
 Maximum Force            0.000367     0.000450     YES
 RMS     Force            0.000140     0.000300     YES
 Maximum Displacement     0.192529     0.001800     NO 
 RMS     Displacement     0.077608     0.001200     NO 
 Predicted change in Energy=-1.790047D-04
 GradGradGradGradGradGradGradGradGradGradGradGradGradGradGradGradGradGrad

                          Input orientation:                          
 ---------------------------------------------------------------------
 Center     Atomic      Atomic             Coordinates (Angstroms)
 Number     Number       Type             X           Y           Z
 ---------------------------------------------------------------------
      1          7           0       -1.948763   -0.621037   -0.117911
      2          5           0       -1.812230    0.758978   -0.243036
      3          7           0        1.948474   -0.621803    0.117098
      4          5           0        1.811800    0.757866    0.243002
      5          1           0        2.495273   -1.062797   -0.607788
      6          1           0       -2.373086    1.472023    0.535188
      7          1           0       -1.142848    1.196070   -1.131476
      8          1           0       -1.481160   -1.275290   -0.727988
      9          1           0       -2.496277   -1.061940    0.605900
     10          1           0        1.482377   -1.276753    0.727547
     11          1           0        1.143500    1.194637    1.132662
     12          1           0        2.371439    1.471856   -0.535296
 ---------------------------------------------------------------------
                    Distance matrix (angstroms):
                    1          2          3          4          5
     1  N    0.000000
     2  B    1.392386   0.000000
     3  N    3.904316   4.022330   0.000000
     4  B    4.021624   3.656477   1.392127   0.000000
     5  H    4.492726   4.691107   1.009418   2.122685   0.000000
     6  H    2.233268   1.195250   4.820247   4.255427   5.606480
     7  H    2.231298   1.195177   3.797350   3.288032   4.314238
     8  H    1.009403   2.117317   3.592158   3.990004   3.983920
     9  H    1.008995   2.122347   4.493157   4.690727   5.136985
    10  H    3.594090   3.992576   1.009382   2.117304   1.689631
    11  H    3.797722   3.289176   2.231324   1.195362   3.154753
    12  H    4.818564   4.254021   2.233367   1.195293   2.538712
                    6          7          8          9         10
     6  H    0.000000
     7  H    2.089833   0.000000
     8  H    3.152598   2.526831   0.000000
     9  H    2.537941   3.154181   1.689745   0.000000
    10  H    4.738920   4.057416   3.301687   3.986305   0.000000
    11  H    3.577749   3.217718   4.056032   4.314811   2.527197
    12  H    4.863790   3.575151   4.735659   5.605097   3.152785
                   11         12
    11  H    0.000000
    12  H    2.089682   0.000000
 Stoichiometry    B2H8N2
 Framework group  C1[X(B2H8N2)]
 Deg. of freedom    30
 Full point group                 C1      NOp   1
 Largest Abelian subgroup         C1      NOp   1
 Largest concise Abelian subgroup C1      NOp   1
                         Standard orientation:                         
 ---------------------------------------------------------------------
 Center     Atomic      Atomic             Coordinates (Angstroms)
 Number     Number       Type             X           Y           Z
 ---------------------------------------------------------------------
      1          7           0       -1.951968   -0.607340    0.001153
      2          5           0       -1.823727    0.772680   -0.132402
      3          7           0        1.952347   -0.606884   -0.001204
      4          5           0        1.823148    0.772779    0.132414
      5          1           0        2.454203   -1.047919   -0.757877
      6          1           0       -2.336457    1.485777    0.678293
      7          1           0       -1.209733    1.209722   -1.060008
      8          1           0       -1.522115   -1.261625   -0.636052
      9          1           0       -2.454328   -1.048203    0.757026
     10          1           0        1.524429   -1.261801    0.636623
     11          1           0        1.210034    1.209602    1.060944
     12          1           0        2.334212    1.486718   -0.678654
 ---------------------------------------------------------------------
 Rotational constants (GHZ):          12.0910028           2.3369656           2.0458637
 Standard basis: 6-31G(d,p) (6D, 7F)
 There are   100 symmetry adapted cartesian basis functions of A   symmetry.
 There are   100 symmetry adapted basis functions of A   symmetry.
   100 basis functions,   168 primitive gaussians,   100 cartesian basis functions
    16 alpha electrons       16 beta electrons
       nuclear repulsion energy        98.4021440632 Hartrees.
 NAtoms=   12 NActive=   12 NUniq=   12 SFac= 1.00D+00 NAtFMM=   60 NAOKFM=F Big=F
 Integral buffers will be    131072 words long.
 Raffenetti 2 integral format.
 Two-electron integral symmetry is turned on.
 One-electron integrals computed using PRISM.
 NBasis=   100 RedAO= T EigKep=  1.06D-02  NBF=   100
 NBsUse=   100 1.00D-06 EigRej= -1.00D+00 NBFU=   100
 Initial guess from the checkpoint file:  "/scratch/1311853/Gau-23921.chk"
 B after Tr=    -0.000000    0.000000    0.000000
         Rot=    0.999999    0.000010   -0.001689   -0.000008 Ang=   0.19 deg.
 Initial guess <Sx>= 0.0000 <Sy>= 0.0000 <Sz>= 0.0000 <S**2>= 0.0000 S= 0.0000
 ExpMin= 1.27D-01 ExpMax= 4.17D+03 ExpMxC= 6.27D+02 IAcc=2 IRadAn=         4 AccDes= 0.00D+00
 Harris functional with IExCor=  402 and IRadAn=       4 diagonalized for initial guess.
 HarFok:  IExCor=  402 AccDes= 0.00D+00 IRadAn=         4 IDoV= 1 UseB2=F ITyADJ=14
 ICtDFT=  3500011 ScaDFX=  1.000000  1.000000  1.000000  1.000000
 FoFCou: FMM=F IPFlag=           0 FMFlag=      100000 FMFlg1=           0
         NFxFlg=           0 DoJE=T BraDBF=F KetDBF=T FulRan=T
         wScrn=  0.000000 ICntrl=       500 IOpCl=  0 I1Cent=   200000004 NGrid=           0
         NMat0=    1 NMatS0=      1 NMatT0=    0 NMatD0=    1 NMtDS0=    0 NMtDT0=    0
 Petite list used in FoFCou.
 Keep R1 and R2 ints in memory in canonical form, NReq=29209870.
 Requested convergence on RMS density matrix=1.00D-08 within1024 cycles.
 Requested convergence on MAX density matrix=1.00D-06.
 Requested convergence on             energy=1.00D-06.
 No special actions if energy rises.
 Integral accuracy reduced to 1.0D-05 until final iterations.
 Initial convergence to 1.0D-05 achieved.  Increase integral accuracy.
 SCF Done:  E(UB3LYP) =  -164.096050261     A.U. after    9 cycles
            NFock=  9  Conv=0.96D-08     -V/T= 2.0101
 <Sx>= 0.0000 <Sy>= 0.0000 <Sz>= 0.0000 <S**2>=-0.0000 S=-0.0000
 <L.S>= 0.000000000000E+00
 Annihilation of the first spin contaminant:
 S**2 before annihilation     0.0000,   after     0.0000
 Calling FoFJK, ICntrl=      2127 FMM=F ISym2X=0 I1Cent= 0 IOpClX= 1 NMat=1 NMatS=1 NMatT=0.
 ***** Axes restored to original set *****
 -------------------------------------------------------------------
 Center     Atomic                   Forces (Hartrees/Bohr)
 Number     Number              X              Y              Z
 -------------------------------------------------------------------
      1        7           0.000864222   -0.000063370    0.000068720
      2        5           0.000113199    0.000076236    0.000181931
      3        7          -0.000621561   -0.000490739   -0.000379544
      4        5          -0.000162836    0.000353288   -0.000091210
      5        1           0.000000103    0.000183877    0.000246052
      6        1          -0.000422430   -0.000088146   -0.000219872
      7        1          -0.000195638   -0.000003910    0.000033457
      8        1          -0.000574531    0.000113904   -0.000099981
      9        1          -0.000177518   -0.000033451   -0.000003695
     10        1           0.000529701    0.000140001    0.000143703
     11        1           0.000232098   -0.000057616   -0.000084677
     12        1           0.000415190   -0.000130076    0.000205115
 -------------------------------------------------------------------
 Cartesian Forces:  Max     0.000864222 RMS     0.000293863

 GradGradGradGradGradGradGradGradGradGradGradGradGradGradGradGradGradGrad
 Berny optimization.
 Using GEDIIS/GDIIS optimizer.
 FormGI is forming the generalized inverse of G from B-inverse, IUseBI=4.
 Internal  Forces:  Max     0.000332886 RMS     0.000135504
 Search for a local minimum.
 Step number   4 out of a maximum of   69
 All quantities printed in internal units (Hartrees-Bohrs-Radians)
 Mixed Optimization -- En-DIIS/RFO-DIIS
 Swapping is turned off.
 Update second derivatives using D2CorX and points    3    4
 DE= -2.32D-04 DEPred=-1.79D-04 R= 1.30D+00
 TightC=F SS=  1.41D+00  RLast= 5.43D-01 DXNew= 8.4853D-01 1.6281D+00
 Trust test= 1.30D+00 RLast= 5.43D-01 DXMaxT set to 8.49D-01
 ITU=  1  1  1  0
     Eigenvalues ---    0.00068   0.00636   0.01950   0.01993   0.02046
     Eigenvalues ---    0.03042   0.03138   0.03771   0.04420   0.04780
     Eigenvalues ---    0.05426   0.06522   0.07459   0.08931   0.11912
     Eigenvalues ---    0.12872   0.14390   0.15233   0.15996   0.16014
[...]
    10  H    3.027905   3.071499   1.010828   2.128233   1.683416
    11  H    4.538778   5.001758   2.234911   1.193987   3.157531
    12  H    4.751050   5.564445   2.229666   1.194892   2.532327
                    6          7          8          9         10
     6  H    0.000000
     7  H    2.087412   0.000000
     8  H    3.151592   2.524587   0.000000
     9  H    2.535370   3.151874   1.692367   0.000000
    10  H    4.226639   2.380626   2.426111   3.971425   0.000000
    11  H    6.177049   4.470730   3.645716   5.291519   2.544667
    12  H    6.730247   5.301144   3.751894   5.287412   3.155908
                   11         12
    11  H    0.000000
    12  H    2.091568   0.000000
 Stoichiometry    B2H8N2
 Framework group  C1[X(B2H8N2)]
 Deg. of freedom    30
 Full point group                 C1      NOp   1
 Largest Abelian subgroup         C1      NOp   1
 Largest concise Abelian subgroup C1      NOp   1
                         Standard orientation:                         
 ---------------------------------------------------------------------
 Center     Atomic      Atomic             Coordinates (Angstroms)
 Number     Number       Type             X           Y           Z
 ---------------------------------------------------------------------
      1          7           0       -1.615702   -0.678907    0.007352
      2          5           0       -2.196338    0.572445   -0.155007
      3          7           0        1.419241    0.391302    0.382602
      4          5           0        2.441691   -0.215654   -0.347247
      5          1           0        1.251699    0.208899    1.361925
      6          1           0       -3.381940    0.685853   -0.068524
      7          1           0       -1.491807    1.512853   -0.385952
      8          1           0       -0.620338   -0.832614   -0.049997
      9          1           0       -2.148340   -1.511331    0.212034
     10          1           0        0.821857    1.117339    0.011421
     11          1           0        2.599325    0.088480   -1.491039
     12          1           0        3.118002   -1.040198    0.191731
 ---------------------------------------------------------------------
 Rotational constants (GHZ):          17.4961681           2.2058410           2.0870713

 **********************************************************************

            Population analysis using the SCF density.

 **********************************************************************

 Orbital symmetries:
 Alpha Orbitals:
       Occupied  (A) (A) (A) (A) (A) (A) (A) (A) (A) (A) (A) (A)
                 (A) (A) (A) (A)
       Virtual   (A) (A) (A) (A) (A) (A) (A) (A) (A) (A) (A) (A)
                 (A) (A) (A) (A) (A) (A) (A) (A) (A) (A) (A) (A)
                 (A) (A) (A) (A) (A) (A) (A) (A) (A) (A) (A) (A)
                 (A) (A) (A) (A) (A) (A) (A) (A) (A) (A) (A) (A)
                 (A) (A) (A) (A) (A) (A) (A) (A) (A) (A) (A) (A)
                 (A) (A) (A) (A) (A) (A) (A) (A) (A) (A) (A) (A)
                 (A) (A) (A) (A) (A) (A) (A) (A) (A) (A) (A) (A)
 Beta  Orbitals:
       Occupied  (A) (A) (A) (A) (A) (A) (A) (A) (A) (A) (A) (A)
                 (A) (A) (A) (A)
       Virtual   (A) (A) (A) (A) (A) (A) (A) (A) (A) (A) (A) (A)
                 (A) (A) (A) (A) (A) (A) (A) (A) (A) (A) (A) (A)
                 (A) (A) (A) (A) (A) (A) (A) (A) (A) (A) (A) (A)
                 (A) (A) (A) (A) (A) (A) (A) (A) (A) (A) (A) (A)
                 (A) (A) (A) (A) (A) (A) (A) (A) (A) (A) (A) (A)
                 (A) (A) (A) (A) (A) (A) (A) (A) (A) (A) (A) (A)
                 (A) (A) (A) (A) (A) (A) (A) (A) (A) (A) (A) (A)
 The electronic state is 1-A.
 Alpha  occ. eigenvalues --  -14.34500 -14.33527  -6.74075  -6.73586  -0.87497
 Alpha  occ. eigenvalues --   -0.86437  -0.52911  -0.52181  -0.51520  -0.50807
 Alpha  occ. eigenvalues --   -0.39396  -0.38958  -0.32273  -0.31798  -0.30607
 Alpha  occ. eigenvalues --   -0.29646
 Alpha virt. eigenvalues --    0.01253   0.01896   0.06463   0.10074   0.12195
 Alpha virt. eigenvalues --    0.14817   0.18869   0.21343   0.22825   0.24232
 Alpha virt. eigenvalues --    0.25123   0.27084   0.42859   0.45211   0.45241
 Alpha virt. eigenvalues --    0.46404   0.47117   0.48391   0.55918   0.57888
 Alpha virt. eigenvalues --    0.71583   0.72950   0.74068   0.82270   0.82810
 Alpha virt. eigenvalues --    0.83260   0.86568   0.90842   0.91893   0.92991
 Alpha virt. eigenvalues --    0.98704   1.00831   1.13133   1.14340   1.16925
 Alpha virt. eigenvalues --    1.17141   1.20681   1.21663   1.22190   1.24616
 Alpha virt. eigenvalues --    1.47136   1.47634   1.58084   1.59190   1.68715
 Alpha virt. eigenvalues --    1.70047   1.72950   1.73458   2.00632   2.02732
 Alpha virt. eigenvalues --    2.08073   2.08927   2.15563   2.16915   2.24357
 Alpha virt. eigenvalues --    2.26068   2.29750   2.30559   2.38458   2.38526
 Alpha virt. eigenvalues --    2.39243   2.41870   2.55429   2.57410   2.60582
 Alpha virt. eigenvalues --    2.61242   2.63617   2.66330   2.66849   2.68235
 Alpha virt. eigenvalues --    2.93713   2.95181   3.11790   3.13585   3.22783
 Alpha virt. eigenvalues --    3.23059   3.26876   3.30888   3.61638   3.63188
 Alpha virt. eigenvalues --    3.65128   3.68087   4.10659   4.12144
  Beta  occ. eigenvalues --  -14.34500 -14.33527  -6.74075  -6.73586  -0.87497
  Beta  occ. eigenvalues --   -0.86437  -0.52911  -0.52181  -0.51520  -0.50807
  Beta  occ. eigenvalues --   -0.39396  -0.38958  -0.32273  -0.31798  -0.30607
  Beta  occ. eigenvalues --   -0.29646
  Beta virt. eigenvalues --    0.01253   0.01896   0.06463   0.10074   0.12195
  Beta virt. eigenvalues --    0.14817   0.18869   0.21343   0.22825   0.24232
  Beta virt. eigenvalues --    0.25123   0.27084   0.42859   0.45211   0.45241
  Beta virt. eigenvalues --    0.46404   0.47117   0.48391   0.55918   0.57888
  Beta virt. eigenvalues --    0.71583   0.72950   0.74068   0.82270   0.82810
  Beta virt. eigenvalues --    0.83260   0.86568   0.90842   0.91893   0.92991
  Beta virt. eigenvalues --    0.98704   1.00831   1.13133   1.14340   1.16925
  Beta virt. eigenvalues --    1.17141   1.20681   1.21663   1.22190   1.24616
  Beta virt. eigenvalues --    1.47136   1.47634   1.58084   1.59190   1.68715
  Beta virt. eigenvalues --    1.70047   1.72950   1.73458   2.00632   2.02732
  Beta virt. eigenvalues --    2.08073   2.08927   2.15563   2.16915   2.24357
  Beta virt. eigenvalues --    2.26068   2.29750   2.30559   2.38458   2.38526
  Beta virt. eigenvalues --    2.39243   2.41870   2.55429   2.57410   2.60582
  Beta virt. eigenvalues --    2.61242   2.63617   2.66330   2.66849   2.68235
  Beta virt. eigenvalues --    2.93713   2.95181   3.11790   3.13585   3.22783
  Beta virt. eigenvalues --    3.23059   3.26876   3.30888   3.61638   3.63188
  Beta virt. eigenvalues --    3.65128   3.68087   4.10659   4.12144
          Condensed to atoms (all electrons):
               1          2          3          4          5          6
     1  N    6.404537   0.518936  -0.010098  -0.000813   0.000862  -0.027040
     2  B    0.518936   3.554842   0.001842   0.000074   0.000431   0.413126
     3  N   -0.010098   0.001842   6.383658   0.502631   0.354097   0.000038
     4  B   -0.000813   0.000074   0.502631   3.565296  -0.034113   0.000002
     5  H    0.000862   0.000431   0.354097  -0.034113   0.445235  -0.000001
     6  H   -0.027040   0.413126   0.000038   0.000002  -0.000001   0.717137
     7  H   -0.028416   0.406599  -0.002247  -0.000058   0.000056  -0.029001
     8  H    0.333911  -0.033329   0.024199   0.004622  -0.000377   0.003738
     9  H    0.354282  -0.035003   0.000131   0.000018   0.000004  -0.004037
    10  H   -0.000362   0.004007   0.349707  -0.030780  -0.030302  -0.000099
    11  H   -0.000022   0.000018  -0.026709   0.415632   0.003515  -0.000000
    12  H   -0.000007   0.000003  -0.028218   0.414752  -0.004197   0.000000
               7          8          9         10         11         12
     1  N   -0.028416   0.333911   0.354282  -0.000362  -0.000022  -0.000007
     2  B    0.406599  -0.033329  -0.035003   0.004007   0.000018   0.000003
     3  N   -0.002247   0.024199   0.000131   0.349707  -0.026709  -0.028218
     4  B   -0.000058   0.004622   0.000018  -0.030780   0.415632   0.414752
     5  H    0.000056  -0.000377   0.000004  -0.030302   0.003515  -0.004197
     6  H   -0.029001   0.003738  -0.004037  -0.000099  -0.000000   0.000000
     7  H    0.740828  -0.004969   0.003715   0.007484  -0.000007  -0.000000
     8  H   -0.004969   0.438213  -0.027718  -0.002307   0.000049  -0.000007
     9  H    0.003715  -0.027718   0.448951   0.000065   0.000000   0.000000
    10  H    0.007484  -0.002307   0.000065   0.425365  -0.003803   0.003316
    11  H   -0.000007   0.000049   0.000000  -0.003803   0.703298  -0.026980
    12  H   -0.000000  -0.000007   0.000000   0.003316  -0.026980   0.710957
          Atomic-Atomic Spin Densities.
               1          2          3          4          5          6
     1  N   -0.000000  -0.000000   0.000000   0.000000   0.000000  -0.000000
     2  B   -0.000000   0.000000  -0.000000   0.000000  -0.000000  -0.000000
     3  N    0.000000  -0.000000  -0.000000   0.000000   0.000000   0.000000
     4  B    0.000000   0.000000   0.000000   0.000000   0.000000  -0.000000
     5  H    0.000000  -0.000000   0.000000   0.000000   0.000000   0.000000
     6  H   -0.000000  -0.000000   0.000000  -0.000000   0.000000   0.000000
     7  H   -0.000000   0.000000   0.000000  -0.000000  -0.000000  -0.000000
     8  H    0.000000  -0.000000  -0.000000  -0.000000  -0.000000  -0.000000
     9  H    0.000000   0.000000  -0.000000   0.000000  -0.000000  -0.000000
    10  H    0.000000   0.000000   0.000000   0.000000   0.000000   0.000000
    11  H    0.000000   0.000000  -0.000000  -0.000000   0.000000   0.000000
    12  H    0.000000  -0.000000  -0.000000   0.000000  -0.000000  -0.000000
               7          8          9         10         11         12
     1  N   -0.000000   0.000000   0.000000   0.000000   0.000000   0.000000
     2  B    0.000000  -0.000000   0.000000   0.000000   0.000000  -0.000000
     3  N    0.000000  -0.000000  -0.000000   0.000000  -0.000000  -0.000000
     4  B   -0.000000  -0.000000   0.000000   0.000000  -0.000000   0.000000
     5  H   -0.000000  -0.000000  -0.000000   0.000000   0.000000  -0.000000
     6  H   -0.000000  -0.000000  -0.000000   0.000000   0.000000  -0.000000
     7  H   -0.000000  -0.000000  -0.000000   0.000000  -0.000000  -0.000000
     8  H   -0.000000  -0.000000   0.000000   0.000000  -0.000000   0.000000
     9  H   -0.000000   0.000000  -0.000000  -0.000000  -0.000000   0.000000
    10  H    0.000000   0.000000  -0.000000  -0.000000   0.000000  -0.000000
    11  H   -0.000000  -0.000000  -0.000000   0.000000  -0.000000  -0.000000
    12  H   -0.000000   0.000000   0.000000  -0.000000  -0.000000  -0.000000
 Mulliken charges and spin densities:
               1          2
     1  N   -0.545769  -0.000000
     2  B    0.168451   0.000000
     3  N   -0.549030  -0.000000
     4  B    0.162737   0.000000
     5  H    0.264789   0.000000
     6  H   -0.073861  -0.000000
     7  H   -0.093983  -0.000000
     8  H    0.263975  -0.000000
     9  H    0.259592  -0.000000
    10  H    0.277709   0.000000
    11  H   -0.064992  -0.000000
    12  H   -0.069619  -0.000000
 Sum of Mulliken charges =  -0.00000  -0.00000
 Mulliken charges and spin densities with hydrogens summed into heavy atoms:
               1          2
     1  N   -0.022202  -0.000000
     2  B    0.000607  -0.000000
     3  N   -0.006531  -0.000000
     4  B    0.028126   0.000000
 Electronic spatial extent (au):  <R**2>=            579.3254
 Charge=             -0.0000 electrons
 Dipole moment (field-independent basis, Debye):
    X=             -0.3296    Y=             -0.8611    Z=              1.3895  Tot=              1.6676
 Quadrupole moment (field-independent basis, Debye-Ang):
   XX=            -34.5605   YY=            -25.7730   ZZ=            -27.0373
   XY=              4.6536   XZ=              1.0765   YZ=             -0.1776
 Traceless Quadrupole moment (field-independent basis, Debye-Ang):
   XX=             -5.4369   YY=              3.3506   ZZ=              2.0863
   XY=              4.6536   XZ=              1.0765   YZ=             -0.1776
 Octapole moment (field-independent basis, Debye-Ang**2):
  XXX=             -8.1442  YYY=             -7.8827  ZZZ=              8.6238  XYY=             -4.3163
  XXY=             -6.7498  XXZ=              6.1429  XZZ=             -0.1101  YZZ=             -0.2747
  YYZ=              2.2162  XYZ=              0.5204
 Hexadecapole moment (field-independent basis, Debye-Ang**3):
 XXXX=           -795.8283 YYYY=            -92.7216 ZZZZ=            -54.7004 XXXY=             52.2108
 XXXZ=              8.7713 YYYX=             30.5986 YYYZ=             -0.1090 ZZZX=             12.1726
 ZZZY=              1.0948 XXYY=           -136.1009 XXZZ=           -135.0584 YYZZ=            -26.6870
 XXYZ=             -1.8943 YYXZ=             -2.0818 ZZXY=              4.2502
 N-N= 1.002998738425D+02 E-N=-5.807395720621D+02  KE= 1.624711059868D+02
                          Isotropic Fermi Contact Couplings
        Atom                 a.u.       MegaHertz       Gauss      10(-4) cm-1
     1  N(14)             -0.00000      -0.00000      -0.00000      -0.00000
     2  B(11)             -0.00000      -0.00000      -0.00000      -0.00000
     3  N(14)             -0.00000      -0.00000      -0.00000      -0.00000
     4  B(11)              0.00000       0.00000       0.00000       0.00000
     5  H(1)              -0.00000      -0.00000      -0.00000      -0.00000
     6  H(1)               0.00000       0.00000       0.00000       0.00000
     7  H(1)              -0.00000      -0.00000      -0.00000      -0.00000
     8  H(1)              -0.00000      -0.00000      -0.00000      -0.00000
     9  H(1)              -0.00000      -0.00000      -0.00000      -0.00000
    10  H(1)              -0.00000      -0.00000      -0.00000      -0.00000
    11  H(1)              -0.00000      -0.00000      -0.00000      -0.00000
    12  H(1)              -0.00000      -0.00000      -0.00000      -0.00000
 --------------------------------------------------------
       Center         ----  Spin Dipole Couplings  ----
                      3XX-RR        3YY-RR        3ZZ-RR
 --------------------------------------------------------
     1   Atom        0.000000      0.000000      0.000000
     2   Atom        0.000000      0.000000      0.000000
     3   Atom        0.000000      0.000000      0.000000
     4   Atom        0.000000      0.000000      0.000000
     5   Atom        0.000000      0.000000      0.000000
     6   Atom        0.000000      0.000000      0.000000
     7   Atom        0.000000      0.000000      0.000000
     8   Atom        0.000000      0.000000      0.000000
     9   Atom        0.000000      0.000000      0.000000
    10   Atom        0.000000      0.000000      0.000000
    11   Atom        0.000000      0.000000      0.000000
    12   Atom        0.000000      0.000000      0.000000
 --------------------------------------------------------
                        XY            XZ            YZ
 --------------------------------------------------------
     1   Atom        0.000000      0.000000      0.000000
     2   Atom        0.000000      0.000000      0.000000
     3   Atom        0.000000      0.000000      0.000000
     4   Atom        0.000000      0.000000      0.000000
     5   Atom        0.000000      0.000000      0.000000
     6   Atom        0.000000      0.000000      0.000000
     7   Atom        0.000000      0.000000      0.000000
     8   Atom        0.000000      0.000000      0.000000
     9   Atom        0.000000      0.000000      0.000000
    10   Atom        0.000000      0.000000      0.000000
    11   Atom        0.000000      0.000000      0.000000
    12   Atom        0.000000      0.000000      0.000000
 --------------------------------------------------------


 ---------------------------------------------------------------------------------
              Anisotropic Spin Dipole Couplings in Principal Axis System
 ---------------------------------------------------------------------------------

       Atom             a.u.   MegaHertz   Gauss  10(-4) cm-1        Axes

              Baa     0.0000     0.000     0.000     0.000  1.0000  0.0000  0.0000
     1 N(14)  Bbb     0.0000     0.000     0.000     0.000 -0.0000  1.0000  0.0000
              Bcc     0.0000     0.000     0.000     0.000  0.0000  0.0000  1.0000
 
              Baa     0.0000     0.000     0.000     0.000  1.0000  0.0000  0.0000
     2 B(11)  Bbb     0.0000     0.000     0.000     0.000 -0.0000  1.0000  0.0000
              Bcc     0.0000     0.000     0.000     0.000  0.0000  0.0000  1.0000
 
              Baa     0.0000     0.000     0.000     0.000  1.0000  0.0000  0.0000
     3 N(14)  Bbb     0.0000     0.000     0.000     0.000 -0.0000  1.0000  0.0000
              Bcc     0.0000     0.000     0.000     0.000  0.0000  0.0000  1.0000
 
              Baa     0.0000     0.000     0.000     0.000  1.0000  0.0000  0.0000
     4 B(11)  Bbb     0.0000     0.000     0.000     0.000 -0.0000  1.0000  0.0000
              Bcc     0.0000     0.000     0.000     0.000  0.0000  0.0000  1.0000
 
              Baa     0.0000     0.000     0.000     0.000  1.0000  0.0000  0.0000
     5 H(1)   Bbb     0.0000     0.000     0.000     0.000 -0.0000  1.0000  0.0000
              Bcc     0.0000     0.000     0.000     0.000  0.0000  0.0000  1.0000
 
              Baa     0.0000     0.000     0.000     0.000  1.0000  0.0000  0.0000
     6 H(1)   Bbb     0.0000     0.000     0.000     0.000 -0.0000  1.0000  0.0000
              Bcc     0.0000     0.000     0.000     0.000  0.0000  0.0000  1.0000
 
              Baa     0.0000     0.000     0.000     0.000  1.0000  0.0000  0.0000
     7 H(1)   Bbb     0.0000     0.000     0.000     0.000 -0.0000  1.0000  0.0000
              Bcc     0.0000     0.000     0.000     0.000  0.0000  0.0000  1.0000
 
              Baa     0.0000     0.000     0.000     0.000  1.0000  0.0000  0.0000
     8 H(1)   Bbb     0.0000     0.000     0.000     0.000 -0.0000  1.0000  0.0000
              Bcc     0.0000     0.000     0.000     0.000  0.0000  0.0000  1.0000
 
              Baa     0.0000     0.000     0.000     0.000  1.0000  0.0000  0.0000
     9 H(1)   Bbb     0.0000     0.000     0.000     0.000 -0.0000  1.0000  0.0000
              Bcc     0.0000     0.000     0.000     0.000  0.0000  0.0000  1.0000
 
              Baa     0.0000     0.000     0.000     0.000  1.0000  0.0000  0.0000
    10 H(1)   Bbb     0.0000     0.000     0.000     0.000 -0.0000  1.0000  0.0000
              Bcc     0.0000     0.000     0.000     0.000  0.0000  0.0000  1.0000
 
              Baa     0.0000     0.000     0.000     0.000  1.0000  0.0000  0.0000
    11 H(1)   Bbb     0.0000     0.000     0.000     0.000 -0.0000  1.0000  0.0000
              Bcc     0.0000     0.000     0.000     0.000  0.0000  0.0000  1.0000
 
              Baa     0.0000     0.000     0.000     0.000  1.0000  0.0000  0.0000
    12 H(1)   Bbb     0.0000     0.000     0.000     0.000 -0.0000  1.0000  0.0000
              Bcc     0.0000     0.000     0.000     0.000  0.0000  0.0000  1.0000
 

 ---------------------------------------------------------------------------------



 QED = W**5 (WHICH WAS WHAT WE WANTED)
 Error termination request processed by link 9999.
 Error termination via Lnk1e in /opt/gaussian/g16/legacy/g16/l9999.exe at Fri Jul  3 20:26:29 2020.
 Job cpu time:       0 days  1 hours 36 minutes  6.1 seconds.
 Elapsed time:       0 days  0 hours 24 minutes 42.1 seconds.
 File lengths (MBytes):  RWF=     15 Int=      0 D2E=      0 Chk=      2 Scr=      1
