 Entering Gaussian System, Link 0=/opt/gaussian/g16/legacy/g16/g16
 Initial command:
 /opt/gaussian/g16/legacy/g16/l1.exe "/scratch/1311838/Gau-7873.inp" -scrdir="/scratch/1311838/"
 Entering Link 1 = /opt/gaussian/g16/legacy/g16/l1.exe PID=      7883.
  
 Copyright (c) 1988,1990,1992,1993,1995,1998,2003,2009,2016,
            Gaussian, Inc.  All Rights Reserved.
  
 This is part of the Gaussian(R) 16 program.  It is based on
 the Gaussian(R) 09 system (copyright 2009, Gaussian, Inc.),
 the Gaussian(R) 03 system (copyright 2003, Gaussian, Inc.),
 the Gaussian(R) 98 system (copyright 1998, Gaussian, Inc.),
 the Gaussian(R) 94 system (copyright 1995, Gaussian, Inc.),
 the Gaussian 92(TM) system (copyright 1992, Gaussian, Inc.),
 the Gaussian 90(TM) system (copyright 1990, Gaussian, Inc.),
 the Gaussian 88(TM) system (copyright 1988, Gaussian, Inc.),
 the Gaussian 86(TM) system (copyright 1986, Carnegie Mellon
 University), and the Gaussian 82(TM) system (copyright 1983,
 Carnegie Mellon University). Gaussian is a federally registered
 trademark of Gaussian, Inc.
  
 This software contains proprietary and confidential information,
 including trade secrets, belonging to Gaussian, Inc.
  
 This software is provided under written license and may be
 used, copied, transmitted, or stored only in accord with that
 written license.
  
 The following legend is applicable only to US Government
 contracts under FAR:
  
                    RESTRICTED RIGHTS LEGEND
  
 Use, reproduction and disclosure by the US Government is
 subject to restrictions as set forth in subparagraphs (a)
 and (c) of the Commercial Computer Software - Restricted
 Rights clause in FAR 52.227-19.
  
 Gaussian, Inc.
 340 Quinnipiac St., Bldg. 40, Wallingford CT 06492
  
  
 ---------------------------------------------------------------
 Warning -- This program may not be used in any manner that
 competes with the business of Gaussian, Inc. or will provide
 assistance to any competitor of Gaussian, Inc.  The licensee
 of this program is prohibited from giving any competitor of
 Gaussian, Inc. access to this program.  By using this program,
 the user acknowledges that Gaussian, Inc. is engaged in the
 business of creating and licensing software in the field of
 computational chemistry and represents and warrants to the
 licensee that it is not a competitor of Gaussian, Inc. and that
 it will not use this program in any manner prohibited above.
 ---------------------------------------------------------------
  

 Cite this work as:
 Gaussian 16, Revision A.03,
 M. J. Frisch, G. W. Trucks, H. B. Schlegel, G. E. Scuseria, 
 M. A. Robb, J. R. Cheeseman, G. Scalmani, V. Barone, 
 G. A. Petersson, H. Nakatsuji, X. Li, M. Caricato, A. V. Marenich, 
 J. Bloino, B. G. Janesko, R. Gomperts, B. Mennucci, H. P. Hratchian, 
 J. V. Ortiz, A. F. Izmaylov, J. L. Sonnenberg, D. Williams-Young, 
 F. Ding, F. Lipparini, F. Egidi, J. Goings, B. Peng, A. Petrone, 
 T. Henderson, D. Ranasinghe, V. G. Zakrzewski, J. Gao, N. Rega, 
 G. Zheng, W. Liang, M. Hada, M. Ehara, K. Toyota, R. Fukuda, 
 J. Hasegawa, M. Ishida, T. Nakajima, Y. Honda, O. Kitao, H. Nakai, 
 T. Vreven, K. Throssell, J. A. Montgomery, Jr., J. E. Peralta, 
 F. Ogliaro, M. J. Bearpark, J. J. Heyd, E. N. Brothers, K. N. Kudin, 
 V. N. Staroverov, T. A. Keith, R. Kobayashi, J. Normand, 
 K. Raghavachari, A. P. Rendell, J. C. Burant, S. S. Iyengar, 
 J. Tomasi, M. Cossi, J. M. Millam, M. Klene, C. Adamo, R. Cammi, 
 J. W. Ochterski, R. L. Martin, K. Morokuma, O. Farkas, 
 J. B. Foresman, and D. J. Fox, Gaussian, Inc., Wallingford CT, 2016.
 
 ******************************************
 Gaussian 16:  EM64L-G16RevA.03 25-Dec-2016
                 3-Jul-2020 
 ******************************************
 %mem=16GB
 %nprocshared=4
 Will use up to    4 processors via shared memory.
 ------------------------------------------------------------------
 #opt=(calcall, ts, noeigen) ub3lyp/6-31G(d,p) scf=(maxcycles=1024)
 ------------------------------------------------------------------
 1/5=1,10=4,11=1,18=20,26=3,38=1/1,3;
 2/9=110,12=2,17=6,18=5,40=1/2;
 3/5=1,6=6,7=101,11=2,25=1,30=1,71=2,74=-5,116=2,140=1/1,2,3;
 4//1;
 5/5=2,7=1024,38=5/2;
 8/6=4,10=90,11=11/1;
 11/6=1,8=1,9=11,15=111,16=1/1,2,10;
 10/6=1/2;
 6/7=2,8=2,9=2,10=2,18=1,28=1/1;
 7/10=1,25=1/1,2,3,16;
 1/5=1,10=4,11=1,18=20,26=3/3(3);
 2/9=110/2;
 7/8=1,9=1,25=1,44=-1/16;
 99//99;
 2/9=110/2;
 3/5=1,6=6,7=101,11=2,25=1,30=1,71=2,74=-5,116=2,140=1/1,2,3;
 4/5=5,16=3,69=1/1;
 5/5=2,7=1024,38=5/2;
 8/6=4,10=90,11=11/1;
 11/6=1,8=1,9=11,15=111,16=1/1,2,10;
 10/6=1/2;
 7/10=1,25=1/1,2,3,16;
 1/5=1,10=4,11=1,18=20,26=3/3(-8);
 2/9=110/2;
 6/7=2,8=2,9=2,10=2,18=1,19=2,28=1/1;
 7/8=1,9=1,25=1,44=-1/16;
 99//99;
 ---------------
 something title
 ---------------
 Symbolic Z-matrix:
 Charge =  0 Multiplicity = 1
 N                     2.35664   0.54068   0.36449 
 B                     2.21548  -0.76697   0.75998 
 N                    -0.28971  -1.29303  -1.1084 
 B                     0.23803  -1.64275   0.20543 
 H                     0.30585  -1.09906  -1.85514 
 H                     2.84647  -1.20577   1.64188 
 H                     1.69136  -1.56323   0.03519 
 H                     1.73733   1.0058   -0.29983 
 H                     3.11717   1.11654   0.69559 
 H                    -1.03317  -0.6466   -1.14772 
 H                     0.07936  -0.86746   1.10571 
 H                     0.16734  -2.75589   0.55621 
 
 Add virtual bond connecting atoms H7         and B4         Dist= 2.77D+00.

 GradGradGradGradGradGradGradGradGradGradGradGradGradGradGradGradGradGrad
 Berny optimization.
 Initialization pass.
                           ----------------------------
                           !    Initial Parameters    !
                           ! (Angstroms and Degrees)  !
 --------------------------                            --------------------------
 ! Name  Definition              Value          Derivative Info.                !
 --------------------------------------------------------------------------------
 ! R1    R(1,2)                  1.3734         calculate D2E/DX2 analytically  !
 ! R2    R(1,8)                  1.0204         calculate D2E/DX2 analytically  !
 ! R3    R(1,9)                  1.0098         calculate D2E/DX2 analytically  !
 ! R4    R(2,6)                  1.1698         calculate D2E/DX2 analytically  !
 ! R5    R(2,7)                  1.1975         calculate D2E/DX2 analytically  !
 ! R6    R(3,4)                  1.4584         calculate D2E/DX2 analytically  !
 ! R7    R(3,5)                  0.9747         calculate D2E/DX2 analytically  !
 ! R8    R(3,10)                 0.986          calculate D2E/DX2 analytically  !
 ! R9    R(4,7)                  1.4654         calculate D2E/DX2 analytically  !
 ! R10   R(4,11)                 1.1987         calculate D2E/DX2 analytically  !
 ! R11   R(4,12)                 1.1692         calculate D2E/DX2 analytically  !
 ! A1    A(2,1,8)              123.9931         calculate D2E/DX2 analytically  !
 ! A2    A(2,1,9)              121.7332         calculate D2E/DX2 analytically  !
 ! A3    A(8,1,9)              114.2451         calculate D2E/DX2 analytically  !
 ! A4    A(1,2,6)              121.2514         calculate D2E/DX2 analytically  !
 ! A5    A(1,2,7)              120.2503         calculate D2E/DX2 analytically  !
 ! A6    A(6,2,7)              116.292          calculate D2E/DX2 analytically  !
 ! A7    A(4,3,5)              121.1186         calculate D2E/DX2 analytically  !
 ! A8    A(4,3,10)             117.7752         calculate D2E/DX2 analytically  !
 ! A9    A(5,3,10)             107.4411         calculate D2E/DX2 analytically  !
 ! A10   A(3,4,7)              103.9582         calculate D2E/DX2 analytically  !
 ! A11   A(3,4,11)             118.2694         calculate D2E/DX2 analytically  !
 ! A12   A(3,4,12)             118.4689         calculate D2E/DX2 analytically  !
 ! A13   A(7,4,11)             100.5698         calculate D2E/DX2 analytically  !
 ! A14   A(7,4,12)              98.4225         calculate D2E/DX2 analytically  !
 ! A15   A(11,4,12)            112.4844         calculate D2E/DX2 analytically  !
 ! A16   A(2,7,4)              113.5677         calculate D2E/DX2 analytically  !
 ! D1    D(8,1,2,6)           -170.5191         calculate D2E/DX2 analytically  !
 ! D2    D(8,1,2,7)             26.9826         calculate D2E/DX2 analytically  !
 ! D3    D(9,1,2,6)             11.5392         calculate D2E/DX2 analytically  !
 ! D4    D(9,1,2,7)           -150.9591         calculate D2E/DX2 analytically  !
 ! D5    D(1,2,7,4)            -88.9595         calculate D2E/DX2 analytically  !
 ! D6    D(6,2,7,4)            107.7048         calculate D2E/DX2 analytically  !
 ! D7    D(5,3,4,7)              1.651          calculate D2E/DX2 analytically  !
 ! D8    D(5,3,4,11)           112.0327         calculate D2E/DX2 analytically  !
 ! D9    D(5,3,4,12)          -106.1955         calculate D2E/DX2 analytically  !
 ! D10   D(10,3,4,7)          -133.8816         calculate D2E/DX2 analytically  !
 ! D11   D(10,3,4,11)          -23.4999         calculate D2E/DX2 analytically  !
 ! D12   D(10,3,4,12)          118.2719         calculate D2E/DX2 analytically  !
 ! D13   D(3,4,7,2)            120.2207         calculate D2E/DX2 analytically  !
 ! D14   D(11,4,7,2)            -2.656          calculate D2E/DX2 analytically  !
 ! D15   D(12,4,7,2)          -117.5477         calculate D2E/DX2 analytically  !
 --------------------------------------------------------------------------------
 Trust Radius=3.00D-01 FncErr=1.00D-07 GrdErr=1.00D-06 EigMax=2.50D+02 EigMin=1.00D-04
 Number of steps in this run=     52 maximum allowed number of steps=    100.
 Search for a saddle point of order  1.
 GradGradGradGradGradGradGradGradGradGradGradGradGradGradGradGradGradGrad

                          Input orientation:                          
 ---------------------------------------------------------------------
 Center     Atomic      Atomic             Coordinates (Angstroms)
 Number     Number       Type             X           Y           Z
 ---------------------------------------------------------------------
      1          7           0        2.356638    0.540675    0.364488
      2          5           0        2.215478   -0.766970    0.759980
      3          7           0       -0.289713   -1.293028   -1.108395
      4          5           0        0.238030   -1.642749    0.205426
      5          1           0        0.305854   -1.099065   -1.855140
      6          1           0        2.846471   -1.205773    1.641884
      7          1           0        1.691357   -1.563229    0.035192
      8          1           0        1.737331    1.005798   -0.299832
      9          1           0        3.117167    1.116539    0.695592
     10          1           0       -1.033174   -0.646601   -1.147720
     11          1           0        0.079360   -0.867458    1.105711
     12          1           0        0.167339   -2.755888    0.556211
 ---------------------------------------------------------------------
                    Distance matrix (angstroms):
                    1          2          3          4          5
     1  N    0.000000
     2  B    1.373417   0.000000
     3  N    3.540484   3.169155   0.000000
     4  B    3.046497   2.232671   1.458404   0.000000
     5  H    3.438199   3.255120   0.974654   2.132164   0.000000
     6  H    2.218503   1.169810   4.172205   3.009705   4.323806
     7  H    2.231019   1.197518   2.303354   1.465422   2.389230
     8  H    1.020393   2.120031   3.169745   3.085124   2.983045
     9  H    1.009779   2.089209   4.546121   4.017880   4.395295
    10  H    3.897079   3.769290   0.985976   2.106959   1.580558
    11  H    2.778173   2.166247   2.284642   1.198651   2.978520
    12  H    3.961959   2.862200   2.262691   1.169242   2.928970
                    6          7          8          9         10
     6  H    0.000000
     7  H    2.010851   0.000000
     8  H    3.145075   2.591188   0.000000
     9  H    2.522276   3.106480   1.705016   0.000000
    10  H    4.811051   3.108465   3.335421   4.871529   0.000000
    11  H    2.838810   2.056366   2.869409   3.651399   2.522788
    12  H    3.280136   2.004128   4.165089   4.869970   2.965418
                   11         12
    11  H    0.000000
    12  H    1.968720   0.000000
 Stoichiometry    B2H8N2
 Framework group  C1[X(B2H8N2)]
 Deg. of freedom    30
 Full point group                 C1      NOp   1
 Largest Abelian subgroup         C1      NOp   1
 Largest concise Abelian subgroup C1      NOp   1
                         Standard orientation:                         
 ---------------------------------------------------------------------
 Center     Atomic      Atomic             Coordinates (Angstroms)
 Number     Number       Type             X           Y           Z
 ---------------------------------------------------------------------
      1          7           0       -1.722071   -0.556534    0.078545
      2          5           0       -1.141782    0.654956   -0.207522
      3          7           0        1.811527   -0.492166   -0.132565
      4          5           0        1.049391    0.700667    0.218492
      5          1           0        1.542028   -1.061271   -0.876500
      6          1           0       -1.773894    1.638845   -0.236708
      7          1           0       -0.066091    0.699823   -0.731855
      8          1           0       -1.196755   -1.413973    0.251873
      9          1           0       -2.724869   -0.672344    0.103775
     10          1           0        2.103822   -1.082975    0.600686
     11          1           0        0.452616    0.707533    1.258000
     12          1           0        1.498900    1.747150   -0.045973
 ---------------------------------------------------------------------
 Rotational constants (GHZ):          14.7991050           3.6067354           3.0665672
 Standard basis: 6-31G(d,p) (6D, 7F)
 There are   100 symmetry adapted cartesian basis functions of A   symmetry.
 There are   100 symmetry adapted basis functions of A   symmetry.
   100 basis functions,   168 primitive gaussians,   100 cartesian basis functions
    16 alpha electrons       16 beta electrons
       nuclear repulsion energy       108.6921042335 Hartrees.
 NAtoms=   12 NActive=   12 NUniq=   12 SFac= 1.00D+00 NAtFMM=   60 NAOKFM=F Big=F
 Integral buffers will be    131072 words long.
 Raffenetti 2 integral format.
 Two-electron integral symmetry is turned on.
 One-electron integrals computed using PRISM.
 NBasis=   100 RedAO= T EigKep=  6.09D-03  NBF=   100
 NBsUse=   100 1.00D-06 EigRej= -1.00D+00 NBFU=   100
 ExpMin= 1.27D-01 ExpMax= 4.17D+03 ExpMxC= 6.27D+02 IAcc=3 IRadAn=         5 AccDes= 0.00D+00
 Harris functional with IExCor=  402 and IRadAn=       5 diagonalized for initial guess.
 HarFok:  IExCor=  402 AccDes= 0.00D+00 IRadAn=         5 IDoV= 1 UseB2=F ITyADJ=14
 ICtDFT=  3500011 ScaDFX=  1.000000  1.000000  1.000000  1.000000
 FoFCou: FMM=F IPFlag=           0 FMFlag=      100000 FMFlg1=           0
         NFxFlg=           0 DoJE=T BraDBF=F KetDBF=T FulRan=T
         wScrn=  0.000000 ICntrl=       500 IOpCl=  0 I1Cent=   200000004 NGrid=           0
         NMat0=    1 NMatS0=      1 NMatT0=    0 NMatD0=    1 NMtDS0=    0 NMtDT0=    0
 Petite list used in FoFCou.
 Initial guess <Sx>= 0.0000 <Sy>= 0.0000 <Sz>= 0.0000 <S**2>= 0.0000 S= 0.0000
 Keep R1 and R2 ints in memory in canonical form, NReq=29209870.
 Requested convergence on RMS density matrix=1.00D-08 within1024 cycles.
 Requested convergence on MAX density matrix=1.00D-06.
 Requested convergence on             energy=1.00D-06.
 No special actions if energy rises.
 Integral accuracy reduced to 1.0D-05 until final iterations.
 Initial convergence to 1.0D-05 achieved.  Increase integral accuracy.
 SCF Done:  E(UB3LYP) =  -164.045116224     A.U. after   13 cycles
            NFock= 13  Conv=0.30D-08     -V/T= 2.0082
 <Sx>= 0.0000 <Sy>= 0.0000 <Sz>= 0.0000 <S**2>=-0.0000 S=-0.0000
 <L.S>= 0.000000000000E+00
 Annihilation of the first spin contaminant:
 S**2 before annihilation    -0.0000,   after     0.0000
 DoSCS=F DFT=T ScalE2(SS,OS)=  1.000000  1.000000
 Range of M.O.s used for correlation:     1   100
 NBasis=   100 NAE=    16 NBE=    16 NFC=     0 NFV=     0
 NROrb=    100 NOA=    16 NOB=    16 NVA=    84 NVB=    84
 Symmetrizing basis deriv contribution to polar:
 IMax=3 JMax=2 DiffMx= 0.00D+00
 G2DrvN: will do    13 centers at a time, making    1 passes.
 Calling FoFCou, ICntrl=  3107 FMM=F I1Cent=   0 AccDes= 0.00D+00.
 End of G2Drv F.D. properties file   721 does not exist.
 End of G2Drv F.D. properties file   722 does not exist.
 End of G2Drv F.D. properties file   788 does not exist.
          IDoAtm=111111111111
          Differentiating once with respect to electric field.
                with respect to dipole field.
          Differentiating once with respect to nuclear coordinates.
 Keep R1 and R2 ints in memory in canonical form, NReq=29207822.
          There are    39 degrees of freedom in the 1st order CPHF.  IDoFFX=6 NUNeed=     3.
     36 vectors produced by pass  0 Test12= 6.89D-15 2.56D-09 XBig12= 7.87D+01 3.15D+00.
 AX will form    36 AO Fock derivatives at one time.
     36 vectors produced by pass  1 Test12= 6.89D-15 2.56D-09 XBig12= 3.02D+00 2.78D-01.
     36 vectors produced by pass  2 Test12= 6.89D-15 2.56D-09 XBig12= 2.57D-02 1.73D-02.
     36 vectors produced by pass  3 Test12= 6.89D-15 2.56D-09 XBig12= 4.95D-05 8.64D-04.
     36 vectors produced by pass  4 Test12= 6.89D-15 2.56D-09 XBig12= 3.79D-08 1.84D-05.
     14 vectors produced by pass  5 Test12= 6.89D-15 2.56D-09 XBig12= 2.24D-11 4.23D-07.
      3 vectors produced by pass  6 Test12= 6.89D-15 2.56D-09 XBig12= 8.24D-15 7.81D-09.
 InvSVY:  IOpt=1 It=  1 EMax= 8.88D-16
 Solved reduced A of dimension   197 with    39 vectors.
 Isotropic polarizability for W=    0.000000       42.43 Bohr**3.
 End of Minotr F.D. properties file   721 does not exist.
 End of Minotr F.D. properties file   722 does not exist.
 End of Minotr F.D. properties file   788 does not exist.

 **********************************************************************

            Population analysis using the SCF density.

 **********************************************************************

 Orbital symmetries:
 Alpha Orbitals:
       Occupied  (A) (A) (A) (A) (A) (A) (A) (A) (A) (A) (A) (A)
                 (A) (A) (A) (A)
       Virtual   (A) (A) (A) (A) (A) (A) (A) (A) (A) (A) (A) (A)
                 (A) (A) (A) (A) (A) (A) (A) (A) (A) (A) (A) (A)
                 (A) (A) (A) (A) (A) (A) (A) (A) (A) (A) (A) (A)
                 (A) (A) (A) (A) (A) (A) (A) (A) (A) (A) (A) (A)
                 (A) (A) (A) (A) (A) (A) (A) (A) (A) (A) (A) (A)
                 (A) (A) (A) (A) (A) (A) (A) (A) (A) (A) (A) (A)
                 (A) (A) (A) (A) (A) (A) (A) (A) (A) (A) (A) (A)
 Beta  Orbitals:
       Occupied  (A) (A) (A) (A) (A) (A) (A) (A) (A) (A) (A) (A)
                 (A) (A) (A) (A)
       Virtual   (A) (A) (A) (A) (A) (A) (A) (A) (A) (A) (A) (A)
                 (A) (A) (A) (A) (A) (A) (A) (A) (A) (A) (A) (A)
                 (A) (A) (A) (A) (A) (A) (A) (A) (A) (A) (A) (A)
                 (A) (A) (A) (A) (A) (A) (A) (A) (A) (A) (A) (A)
                 (A) (A) (A) (A) (A) (A) (A) (A) (A) (A) (A) (A)
                 (A) (A) (A) (A) (A) (A) (A) (A) (A) (A) (A) (A)
                 (A) (A) (A) (A) (A) (A) (A) (A) (A) (A) (A) (A)
 The electronic state is 1-A.
 Alpha  occ. eigenvalues --  -14.35329 -14.27278  -6.77296  -6.72592  -0.88630
 Alpha  occ. eigenvalues --   -0.82947  -0.58076  -0.53088  -0.49854  -0.46706
 Alpha  occ. eigenvalues --   -0.42556  -0.37046  -0.35791  -0.33133  -0.29346
 Alpha  occ. eigenvalues --   -0.20509
 Alpha virt. eigenvalues --   -0.01194   0.05817   0.07544   0.11126   0.13254
 Alpha virt. eigenvalues --    0.17494   0.20233   0.21104   0.22565   0.23845
 Alpha virt. eigenvalues --    0.29234   0.30678   0.42085   0.44350   0.47289
 Alpha virt. eigenvalues --    0.47575   0.55990   0.56771   0.58570   0.69414
 Alpha virt. eigenvalues --    0.73394   0.75555   0.77873   0.80110   0.81661
 Alpha virt. eigenvalues --    0.85822   0.90223   0.90667   0.91687   0.93570
 Alpha virt. eigenvalues --    0.95478   0.95912   0.99479   1.11067   1.16310
 Alpha virt. eigenvalues --    1.18874   1.23418   1.33149   1.39218   1.44609
 Alpha virt. eigenvalues --    1.48005   1.60768   1.62046   1.67481   1.70353
 Alpha virt. eigenvalues --    1.71605   1.72872   1.82909   1.88819   2.03244
 Alpha virt. eigenvalues --    2.05630   2.13014   2.16669   2.21839   2.27434
 Alpha virt. eigenvalues --    2.31038   2.33868   2.38977   2.42298   2.45810
 Alpha virt. eigenvalues --    2.47346   2.51218   2.53563   2.59055   2.62967
 Alpha virt. eigenvalues --    2.65078   2.67809   2.74682   2.79103   2.85345
 Alpha virt. eigenvalues --    2.92713   3.06815   3.11031   3.15446   3.24376
 Alpha virt. eigenvalues --    3.26667   3.29662   3.39873   3.56515   3.57183
 Alpha virt. eigenvalues --    3.62983   3.69780   4.13355   4.22446
  Beta  occ. eigenvalues --  -14.35329 -14.27278  -6.77296  -6.72592  -0.88630
  Beta  occ. eigenvalues --   -0.82947  -0.58076  -0.53088  -0.49854  -0.46706
  Beta  occ. eigenvalues --   -0.42556  -0.37046  -0.35791  -0.33133  -0.29346
  Beta  occ. eigenvalues --   -0.20509
  Beta virt. eigenvalues --   -0.01194   0.05817   0.07544   0.11126   0.13254
  Beta virt. eigenvalues --    0.17494   0.20233   0.21104   0.22565   0.23845
  Beta virt. eigenvalues --    0.29234   0.30678   0.42085   0.44350   0.47289
  Beta virt. eigenvalues --    0.47575   0.55990   0.56771   0.58570   0.69414
  Beta virt. eigenvalues --    0.73394   0.75555   0.77873   0.80110   0.81661
  Beta virt. eigenvalues --    0.85822   0.90223   0.90667   0.91687   0.93570
  Beta virt. eigenvalues --    0.95478   0.95912   0.99479   1.11067   1.16310
  Beta virt. eigenvalues --    1.18874   1.23418   1.33149   1.39218   1.44609
  Beta virt. eigenvalues --    1.48005   1.60768   1.62046   1.67481   1.70353
  Beta virt. eigenvalues --    1.71605   1.72872   1.82909   1.88819   2.03244
  Beta virt. eigenvalues --    2.05630   2.13014   2.16669   2.21839   2.27434
  Beta virt. eigenvalues --    2.31038   2.33868   2.38977   2.42298   2.45810
  Beta virt. eigenvalues --    2.47346   2.51218   2.53563   2.59055   2.62967
  Beta virt. eigenvalues --    2.65078   2.67809   2.74682   2.79103   2.85345
  Beta virt. eigenvalues --    2.92713   3.06815   3.11031   3.15446   3.24376
  Beta virt. eigenvalues --    3.26667   3.29662   3.39873   3.56515   3.57183
  Beta virt. eigenvalues --    3.62983   3.69780   4.13355   4.22446
          Condensed to atoms (all electrons):
               1          2          3          4          5          6
     1  N    6.400522   0.500468  -0.001234  -0.008789   0.000380  -0.027333
     2  B    0.500468   3.590563  -0.022336   0.046090   0.000249   0.402188
     3  N   -0.001234  -0.022336   6.580259   0.447505   0.363002   0.000656
     4  B   -0.008789   0.046090   0.447505   3.509250  -0.041355  -0.002159
     5  H    0.000380   0.000249   0.363002  -0.041355   0.484696   0.000051
     6  H   -0.027333   0.402188   0.000656  -0.002159   0.000051   0.697383
     7  H   -0.020167   0.291588  -0.009090   0.118069  -0.006482  -0.024762
     8  H    0.347403  -0.042145   0.006754   0.001159   0.000904   0.004055
     9  H    0.358511  -0.031034  -0.000020   0.000484  -0.000014  -0.003384
    10  H    0.000046  -0.000535   0.355746  -0.034726  -0.033443  -0.000014
    11  H   -0.011282   0.064560  -0.037022   0.366388   0.003047  -0.000443
    12  H    0.000947  -0.031741  -0.042335   0.388473   0.001973   0.000633
               7          8          9         10         11         12
     1  N   -0.020167   0.347403   0.358511   0.000046  -0.011282   0.000947
     2  B    0.291588  -0.042145  -0.031034  -0.000535   0.064560  -0.031741
     3  N   -0.009090   0.006754  -0.000020   0.355746  -0.037022  -0.042335
     4  B    0.118069   0.001159   0.000484  -0.034726   0.366388   0.388473
     5  H   -0.006482   0.000904  -0.000014  -0.033443   0.003047   0.001973
     6  H   -0.024762   0.004055  -0.003384  -0.000014  -0.000443   0.000633
     7  H    0.728101  -0.003971   0.002472   0.001690  -0.052490   0.001370
     8  H   -0.003971   0.447092  -0.028165   0.000333  -0.001664   0.000253
     9  H    0.002472  -0.028165   0.429013   0.000003   0.000180  -0.000023
    10  H    0.001690   0.000333   0.000003   0.483413  -0.006418   0.004388
    11  H   -0.052490  -0.001664   0.000180  -0.006418   0.812186  -0.049803
    12  H    0.001370   0.000253  -0.000023   0.004388  -0.049803   0.822248
          Atomic-Atomic Spin Densities.
               1          2          3          4          5          6
     1  N   -0.000000   0.000000  -0.000000   0.000000   0.000000  -0.000000
     2  B    0.000000   0.000000   0.000000   0.000000  -0.000000  -0.000000
     3  N   -0.000000   0.000000   0.000000  -0.000000  -0.000000   0.000000
     4  B    0.000000   0.000000  -0.000000   0.000000  -0.000000   0.000000
     5  H    0.000000  -0.000000  -0.000000  -0.000000  -0.000000   0.000000
     6  H   -0.000000  -0.000000   0.000000   0.000000   0.000000   0.000000
     7  H   -0.000000   0.000000  -0.000000  -0.000000  -0.000000   0.000000
     8  H   -0.000000  -0.000000   0.000000   0.000000   0.000000  -0.000000
     9  H    0.000000   0.000000   0.000000  -0.000000   0.000000  -0.000000
    10  H   -0.000000   0.000000   0.000000  -0.000000   0.000000   0.000000
    11  H   -0.000000   0.000000   0.000000  -0.000000   0.000000  -0.000000
    12  H    0.000000  -0.000000  -0.000000   0.000000   0.000000   0.000000
               7          8          9         10         11         12
     1  N   -0.000000  -0.000000   0.000000  -0.000000  -0.000000   0.000000
     2  B    0.000000  -0.000000   0.000000   0.000000   0.000000  -0.000000
     3  N   -0.000000   0.000000   0.000000   0.000000   0.000000  -0.000000
     4  B   -0.000000   0.000000  -0.000000  -0.000000  -0.000000   0.000000
     5  H   -0.000000   0.000000   0.000000   0.000000   0.000000   0.000000
     6  H    0.000000  -0.000000  -0.000000   0.000000  -0.000000   0.000000
     7  H   -0.000000   0.000000   0.000000  -0.000000   0.000000  -0.000000
     8  H    0.000000   0.000000  -0.000000   0.000000  -0.000000  -0.000000
     9  H    0.000000  -0.000000   0.000000  -0.000000   0.000000   0.000000
    10  H   -0.000000   0.000000  -0.000000   0.000000  -0.000000  -0.000000
    11  H    0.000000  -0.000000   0.000000  -0.000000   0.000000   0.000000
    12  H   -0.000000  -0.000000   0.000000  -0.000000   0.000000  -0.000000
 Mulliken charges and spin densities:
               1          2
     1  N   -0.539471  -0.000000
     2  B    0.232085   0.000000
     3  N   -0.641886   0.000000
     4  B    0.209611   0.000000
     5  H    0.226992  -0.000000
     6  H   -0.046870   0.000000
     7  H   -0.026327  -0.000000
     8  H    0.267993   0.000000
     9  H    0.271976   0.000000
    10  H    0.229517   0.000000
    11  H   -0.087238   0.000000
    12  H   -0.096382  -0.000000
 Sum of Mulliken charges =  -0.00000   0.00000
 Mulliken charges and spin densities with hydrogens summed into heavy atoms:
               1          2
     1  N    0.000498  -0.000000
     2  B    0.158888   0.000000
     3  N   -0.185377   0.000000
     4  B    0.025991   0.000000
 APT charges:
               1
     1  N   -0.681017
     2  B    0.755424
     3  N   -0.731195
     4  B    0.861068
     5  H    0.180633
     6  H   -0.175034
     7  H   -0.274803
     8  H    0.215644
     9  H    0.218779
    10  H    0.141117
    11  H   -0.271102
    12  H   -0.239514
 Sum of APT charges =   0.00000
 APT charges with hydrogens summed into heavy atoms:
               1
     1  N   -0.246594
     2  B    0.305587
     3  N   -0.409445
     4  B    0.350452
 Electronic spatial extent (au):  <R**2>=            420.1902
 Charge=              0.0000 electrons
 Dipole moment (field-independent basis, Debye):
    X=             -3.0648    Y=             -3.1142    Z=             -0.1570  Tot=              4.3722
 Quadrupole moment (field-independent basis, Debye-Ang):
   XX=            -26.7497   YY=            -25.9918   ZZ=            -27.4949
   XY=             -0.5944   XZ=              0.9614   YZ=             -0.7742
 Traceless Quadrupole moment (field-independent basis, Debye-Ang):
   XX=             -0.0042   YY=              0.7536   ZZ=             -0.7495
   XY=             -0.5944   XZ=              0.9614   YZ=             -0.7742
 Octapole moment (field-independent basis, Debye-Ang**2):
  XXX=            -29.8168  YYY=            -21.4495  ZZZ=             -2.6546  XYY=             -1.9070
  XXY=            -14.3961  XXZ=              5.3425  XZZ=              2.1185  YZZ=             -5.1646
  YYZ=              0.3023  XYZ=              0.4158
 Hexadecapole moment (field-independent basis, Debye-Ang**3):
 XXXX=           -368.3354 YYYY=           -131.2824 ZZZZ=            -48.8342 XXXY=              7.6661
 XXXZ=              8.0008 YYYX=             -3.3767 YYYZ=             -1.5284 ZZZX=             -2.2469
 ZZZY=             -1.0891 XXYY=            -80.9301 XXZZ=            -73.3112 YYZZ=            -29.3378
 XXYZ=             -3.0514 YYXZ=             -2.3345 ZZXY=             -3.5598
 N-N= 1.086921042335D+02 E-N=-5.977934872869D+02  KE= 1.627054065787D+02
  Exact polarizability:  53.157   1.003  43.264   0.819  -1.123  30.874
 Approx polarizability:  67.268   2.035  57.343   1.859  -1.823  43.715
                          Isotropic Fermi Contact Couplings
        Atom                 a.u.       MegaHertz       Gauss      10(-4) cm-1
     1  N(14)             -0.00000      -0.00000      -0.00000      -0.00000
     2  B(11)             -0.00000      -0.00000      -0.00000      -0.00000
     3  N(14)              0.00000       0.00000       0.00000       0.00000
     4  B(11)              0.00000       0.00000       0.00000       0.00000
     5  H(1)              -0.00000      -0.00000      -0.00000      -0.00000
     6  H(1)               0.00000       0.00000       0.00000       0.00000
     7  H(1)              -0.00000      -0.00000      -0.00000      -0.00000
     8  H(1)              -0.00000      -0.00000      -0.00000      -0.00000
     9  H(1)               0.00000       0.00000       0.00000       0.00000
    10  H(1)               0.00000       0.00000       0.00000       0.00000
    11  H(1)              -0.00000      -0.00000      -0.00000      -0.00000
    12  H(1)               0.00000       0.00000       0.00000       0.00000
 --------------------------------------------------------
       Center         ----  Spin Dipole Couplings  ----
                      3XX-RR        3YY-RR        3ZZ-RR
 --------------------------------------------------------
     1   Atom        0.000000      0.000000      0.000000
     2   Atom        0.000000      0.000000      0.000000
     3   Atom        0.000000      0.000000      0.000000
     4   Atom        0.000000      0.000000      0.000000
     5   Atom        0.000000      0.000000      0.000000
     6   Atom        0.000000      0.000000      0.000000
     7   Atom        0.000000      0.000000      0.000000
     8   Atom        0.000000      0.000000      0.000000
     9   Atom        0.000000      0.000000      0.000000
    10   Atom        0.000000      0.000000      0.000000
    11   Atom        0.000000      0.000000      0.000000
    12   Atom        0.000000      0.000000      0.000000
 --------------------------------------------------------
                        XY            XZ            YZ
 --------------------------------------------------------
     1   Atom        0.000000      0.000000      0.000000
     2   Atom        0.000000      0.000000      0.000000
     3   Atom        0.000000      0.000000      0.000000
     4   Atom        0.000000      0.000000      0.000000
     5   Atom        0.000000      0.000000      0.000000
     6   Atom        0.000000      0.000000      0.000000
     7   Atom        0.000000      0.000000      0.000000
     8   Atom        0.000000      0.000000      0.000000
     9   Atom        0.000000      0.000000      0.000000
    10   Atom        0.000000      0.000000      0.000000
    11   Atom        0.000000      0.000000      0.000000
    12   Atom        0.000000      0.000000      0.000000
 --------------------------------------------------------


 ---------------------------------------------------------------------------------
              Anisotropic Spin Dipole Couplings in Principal Axis System
 ---------------------------------------------------------------------------------

       Atom             a.u.   MegaHertz   Gauss  10(-4) cm-1        Axes

              Baa     0.0000     0.000     0.000     0.000  1.0000  0.0000  0.0000
     1 N(14)  Bbb     0.0000     0.000     0.000     0.000 -0.0000  1.0000  0.0000
              Bcc     0.0000     0.000     0.000     0.000  0.0000  0.0000  1.0000
 
              Baa     0.0000     0.000     0.000     0.000  1.0000  0.0000  0.0000
     2 B(11)  Bbb     0.0000     0.000     0.000     0.000 -0.0000  1.0000  0.0000
              Bcc     0.0000     0.000     0.000     0.000  0.0000  0.0000  1.0000
 
              Baa     0.0000     0.000     0.000     0.000  1.0000  0.0000  0.0000
     3 N(14)  Bbb     0.0000     0.000     0.000     0.000 -0.0000  1.0000  0.0000
              Bcc     0.0000     0.000     0.000     0.000  0.0000  0.0000  1.0000
 
              Baa     0.0000     0.000     0.000     0.000  1.0000  0.0000  0.0000
     4 B(11)  Bbb     0.0000     0.000     0.000     0.000 -0.0000  1.0000  0.0000
              Bcc     0.0000     0.000     0.000     0.000  0.0000  0.0000  1.0000
 
              Baa     0.0000     0.000     0.000     0.000  1.0000  0.0000  0.0000
     5 H(1)   Bbb     0.0000     0.000     0.000     0.000 -0.0000  1.0000  0.0000
              Bcc     0.0000     0.000     0.000     0.000  0.0000  0.0000  1.0000
 
              Baa     0.0000     0.000     0.000     0.000  1.0000  0.0000  0.0000
     6 H(1)   Bbb     0.0000     0.000     0.000     0.000 -0.0000  1.0000  0.0000
              Bcc     0.0000     0.000     0.000     0.000  0.0000  0.0000  1.0000
 
              Baa     0.0000     0.000     0.000     0.000  1.0000  0.0000  0.0000
     7 H(1)   Bbb     0.0000     0.000     0.000     0.000 -0.0000  1.0000  0.0000
              Bcc     0.0000     0.000     0.000     0.000  0.0000  0.0000  1.0000
 
              Baa     0.0000     0.000     0.000     0.000  1.0000  0.0000  0.0000
     8 H(1)   Bbb     0.0000     0.000     0.000     0.000 -0.0000  1.0000  0.0000
              Bcc     0.0000     0.000     0.000     0.000  0.0000  0.0000  1.0000
 
              Baa     0.0000     0.000     0.000     0.000  1.0000  0.0000  0.0000
     9 H(1)   Bbb     0.0000     0.000     0.000     0.000 -0.0000  1.0000  0.0000
              Bcc     0.0000     0.000     0.000     0.000  0.0000  0.0000  1.0000
 
              Baa     0.0000     0.000     0.000     0.000  1.0000  0.0000  0.0000
    10 H(1)   Bbb     0.0000     0.000     0.000     0.000 -0.0000  1.0000  0.0000
              Bcc     0.0000     0.000     0.000     0.000  0.0000  0.0000  1.0000
 
              Baa     0.0000     0.000     0.000     0.000  1.0000  0.0000  0.0000
    11 H(1)   Bbb     0.0000     0.000     0.000     0.000 -0.0000  1.0000  0.0000
              Bcc     0.0000     0.000     0.000     0.000  0.0000  0.0000  1.0000
 
              Baa     0.0000     0.000     0.000     0.000  1.0000  0.0000  0.0000
    12 H(1)   Bbb     0.0000     0.000     0.000     0.000 -0.0000  1.0000  0.0000
              Bcc     0.0000     0.000     0.000     0.000  0.0000  0.0000  1.0000
 

 ---------------------------------------------------------------------------------

 Calling FoFJK, ICntrl=    100127 FMM=F ISym2X=0 I1Cent= 0 IOpClX= 1 NMat=1 NMatS=1 NMatT=0.
 ***** Axes restored to original set *****
 -------------------------------------------------------------------
 Center     Atomic                   Forces (Hartrees/Bohr)
 Number     Number              X              Y              Z
 -------------------------------------------------------------------
      1        7          -0.001847575    0.015325235   -0.011995778
      2        5          -0.000032145    0.004731700    0.006310195
      3        7          -0.008547357   -0.010879111    0.009633252
      4        5          -0.002978596    0.006737701    0.002731359
      5        1           0.022791310   -0.001071739   -0.028811270
      6        1           0.004875943   -0.006087152    0.006367022
      7        1          -0.008187754   -0.013189984   -0.009227282
      8        1           0.007240079   -0.006243534    0.002352971
      9        1          -0.004657733    0.001873406    0.003694495
     10        1          -0.016370756    0.019892900    0.004454644
     11        1          -0.002533460    0.005709590    0.009339483
     12        1           0.010248045   -0.016799011    0.005150910
 -------------------------------------------------------------------
 Cartesian Forces:  Max     0.028811270 RMS     0.010445493
 FormGI is forming the generalized inverse of G from B-inverse, IUseBI=4.

 GradGradGradGradGradGradGradGradGradGradGradGradGradGradGradGradGradGrad
 Berny optimization.
 Internal  Forces:  Max     0.035787576 RMS     0.009418331
 Search for a saddle point.
 Step number   1 out of a maximum of   52
 All quantities printed in internal units (Hartrees-Bohrs-Radians)
 Swapping is turned off.
 Second derivative matrix not updated -- analytic derivatives used.
 ITU=  0
     Eigenvalues ---   -0.03549  -0.00513   0.00023   0.00757   0.01062
     Eigenvalues ---    0.01894   0.02247   0.02961   0.04599   0.05729
     Eigenvalues ---    0.06549   0.07657   0.07983   0.08310   0.09719
     Eigenvalues ---    0.10791   0.11314   0.12096   0.12622   0.14657
     Eigenvalues ---    0.23386   0.25756   0.27287   0.27983   0.37022
     Eigenvalues ---    0.44288   0.47597   0.49924   0.54876   0.59263
 Eigenvectors required to have negative eigenvalues:
                          A16       R9        D5        D4        D9
   1                   -0.59595  -0.42561  -0.35201   0.24074  -0.22254
                          D2        D12       D14       D13       A10
   1                    0.22246  -0.21996  -0.15779  -0.14868   0.10032
 RFO step:  Lambda0=1.320362214D-03 Lambda=-2.03837219D-02.
 Linear search not attempted -- option 19 set.
 Maximum step size (   0.300) exceeded in Quadratic search.
    -- Step size scaled by   0.956
 Iteration  1 RMS(Cart)=  0.20376056 RMS(Int)=  0.07831065
 Iteration  2 RMS(Cart)=  0.05743482 RMS(Int)=  0.01367767
 Iteration  3 RMS(Cart)=  0.01067530 RMS(Int)=  0.00091822
 Iteration  4 RMS(Cart)=  0.00024153 RMS(Int)=  0.00088133
 Iteration  5 RMS(Cart)=  0.00000017 RMS(Int)=  0.00088133
 Variable       Old X    -DE/DX   Delta X   Delta X   Delta X     New X
                                 (Linear)    (Quad)   (Total)
    R1        2.59538   0.01222   0.00000   0.02443   0.02443   2.61981
    R2        1.92826  -0.00877   0.00000  -0.01739  -0.01739   1.91087
    R3        1.90821  -0.00123   0.00000  -0.00372  -0.00372   1.90449
    R4        2.21062   0.00971   0.00000   0.02962   0.02962   2.24024
    R5        2.26298   0.01290   0.00000   0.06309   0.06309   2.32607
    R6        2.75598   0.01594   0.00000  -0.00001  -0.00001   2.75598
    R7        1.84183   0.03579   0.00000   0.05203   0.05203   1.89386
    R8        1.86322   0.02521   0.00000   0.03976   0.03976   1.90299
    R9        2.76925  -0.00249   0.00000   0.08765   0.08765   2.85689
   R10        2.26512   0.01104   0.00000   0.02826   0.02826   2.29339
   R11        2.20955   0.01692   0.00000   0.04987   0.04987   2.25942
    A1        2.16409  -0.00216   0.00000  -0.03701  -0.03728   2.12681
    A2        2.12465   0.00209   0.00000   0.02992   0.02966   2.15430
    A3        1.99395   0.00010   0.00000   0.00835   0.00808   2.00203
    A4        2.11624   0.00428   0.00000   0.03294   0.03287   2.14911
    A5        2.09876  -0.00416   0.00000  -0.05476  -0.05483   2.04393
    A6        2.02968   0.00040   0.00000   0.02974   0.02965   2.05933
    A7        2.11392   0.00133   0.00000   0.05287   0.05034   2.16425
    A8        2.05557  -0.00701   0.00000  -0.01208  -0.01469   2.04088
    A9        1.87520   0.00470   0.00000   0.04858   0.04553   1.92073
   A10        1.81441   0.00007   0.00000   0.05562   0.05606   1.87048
   A11        2.06419  -0.00189   0.00000  -0.04426  -0.04439   2.01980
   A12        2.06767   0.00744   0.00000   0.06437   0.06474   2.13241
   A13        1.75527   0.00004   0.00000  -0.00941  -0.00872   1.74656
   A14        1.71780  -0.00724   0.00000  -0.11364  -0.11381   1.60399
   A15        1.96322  -0.00121   0.00000   0.01975   0.01829   1.98152
   A16        1.98213  -0.01296   0.00000  -0.15371  -0.15371   1.82842
    D1       -2.97612  -0.00242   0.00000  -0.06344  -0.06342  -3.03954
    D2        0.47094  -0.00448   0.00000  -0.09898  -0.09901   0.37193
    D3        0.20140  -0.00386   0.00000  -0.10918  -0.10915   0.09225
    D4       -2.63473  -0.00591   0.00000  -0.14471  -0.14474  -2.77947
    D5       -1.55264  -0.00199   0.00000  -0.07488  -0.07492  -1.62755
    D6        1.87980  -0.00466   0.00000  -0.11020  -0.11016   1.76965
    D7        0.02882   0.00189   0.00000   0.42122   0.42215   0.45097
    D8        1.95534   0.00111   0.00000   0.42614   0.42616   2.38150
    D9       -1.85346   0.00742   0.00000   0.49548   0.49595  -1.35751
   D10       -2.33667   0.00144   0.00000   0.27850   0.27849  -2.05819
   D11       -0.41015   0.00066   0.00000   0.28342   0.28249  -0.12766
   D12        2.06423   0.00697   0.00000   0.35276   0.35229   2.41652
   D13        2.09825  -0.00546   0.00000  -0.16996  -0.16908   1.92916
   D14       -0.04636  -0.00343   0.00000  -0.13868  -0.13780  -0.18415
   D15       -2.05159  -0.00018   0.00000  -0.12584  -0.12760  -2.17920
         Item               Value     Threshold  Converged?
 Maximum Force            0.035788     0.000450     NO 
 RMS     Force            0.009418     0.000300     NO 
 Maximum Displacement     0.637699     0.001800     NO 
 RMS     Displacement     0.226743     0.001200     NO 
 Predicted change in Energy=-1.957565D-02
 GradGradGradGradGradGradGradGradGradGradGradGradGradGradGradGradGradGrad

                          Input orientation:                          
 ---------------------------------------------------------------------
 Center     Atomic      Atomic             Coordinates (Angstroms)
 Number     Number       Type             X           Y           Z
 ---------------------------------------------------------------------
      1          7           0        2.319821    0.504923    0.284462
      2          5           0        2.176107   -0.776859    0.792725
      3          7           0       -0.299287   -1.149499   -1.036124
      4          5           0        0.287575   -1.680982    0.188641
      5          1           0        0.150403   -1.177937   -1.931306
      6          1           0        2.647158   -1.121359    1.824615
      7          1           0        1.788989   -1.648615    0.014708
      8          1           0        1.838947    0.803883   -0.553325
      9          1           0        2.896049    1.211283    0.714232
     10          1           0       -0.847722   -0.309145   -0.951813
     11          1           0        0.172998   -0.982028    1.174126
     12          1           0        0.301101   -2.851414    0.432456
 ---------------------------------------------------------------------
                    Distance matrix (angstroms):
                    1          2          3          4          5
     1  N    0.000000
     2  B    1.386344   0.000000
     3  N    3.367609   3.100182   0.000000
     4  B    2.986199   2.179199   1.458400   0.000000
     5  H    3.528175   3.418287   1.002188   2.183128   0.000000
     6  H    2.263629   1.185481   4.106843   2.925272   4.510424
     7  H    2.234340   1.230906   2.390453   1.511802   2.587175
     8  H    1.011189   2.103395   2.936128   3.021891   2.945781
     9  H    1.007813   2.115937   4.341338   3.930087   4.499535
    10  H    3.496342   3.522174   1.007017   2.114586   1.646346
    11  H    2.758871   2.049392   2.266342   1.213608   3.111687
    12  H    3.919455   2.819436   2.326737   1.195633   2.900104
                    6          7          8          9         10
     6  H    0.000000
     7  H    2.071283   0.000000
     8  H    3.164547   2.517917   0.000000
     9  H    2.595403   3.145463   1.700041   0.000000
    10  H    4.536786   3.111365   2.935271   4.370724   0.000000
    11  H    2.562033   2.097622   2.991480   3.526630   2.452398
    12  H    3.230353   1.958328   4.086310   4.828940   3.114341
                   11         12
    11  H    0.000000
    12  H    2.015214   0.000000
 Stoichiometry    B2H8N2
 Framework group  C1[X(B2H8N2)]
 Deg. of freedom    30
 Full point group                 C1      NOp   1
 Largest Abelian subgroup         C1      NOp   1
 Largest concise Abelian subgroup C1      NOp   1
                         Standard orientation:                         
 ---------------------------------------------------------------------
 Center     Atomic      Atomic             Coordinates (Angstroms)
 Number     Number       Type             X           Y           Z
 ---------------------------------------------------------------------
      1          7           0       -1.639414   -0.588233    0.027158
      2          5           0       -1.123750    0.684404   -0.163727
      3          7           0        1.726942   -0.527988   -0.042138
      4          5           0        1.032308    0.740176    0.148061
      5          1           0        1.733636   -1.039608   -0.903869
      6          1           0       -1.738832    1.672983    0.059326
      7          1           0       -0.104709    0.779948   -0.847507
      8          1           0       -1.071053   -1.416892   -0.085944
      9          1           0       -2.594796   -0.765917    0.294292
     10          1           0        1.735019   -1.165083    0.737689
     11          1           0        0.410720    0.850052    1.184594
     12          1           0        1.474529    1.775165   -0.255394
 ---------------------------------------------------------------------
 Rotational constants (GHZ):          13.8197612           3.9267181           3.2229588
 Standard basis: 6-31G(d,p) (6D, 7F)
 There are   100 symmetry adapted cartesian basis functions of A   symmetry.
 There are   100 symmetry adapted basis functions of A   symmetry.
   100 basis functions,   168 primitive gaussians,   100 cartesian basis functions
    16 alpha electrons       16 beta electrons
       nuclear repulsion energy       109.2130672503 Hartrees.
 NAtoms=   12 NActive=   12 NUniq=   12 SFac= 1.00D+00 NAtFMM=   60 NAOKFM=F Big=F
 Integral buffers will be    131072 words long.
 Raffenetti 2 integral format.
 Two-electron integral symmetry is turned on.
 One-electron integrals computed using PRISM.
 NBasis=   100 RedAO= T EigKep=  6.69D-03  NBF=   100
 NBsUse=   100 1.00D-06 EigRej= -1.00D+00 NBFU=   100
 Initial guess from the checkpoint file:  "/scratch/1311838/Gau-7883.chk"
 B after Tr=    -0.000000   -0.000000    0.000000
         Rot=    0.999988    0.001196    0.004538   -0.001422 Ang=   0.56 deg.
 Initial guess <Sx>= 0.0000 <Sy>= 0.0000 <Sz>= 0.0000 <S**2>=-0.0000 S=-0.0000
 ExpMin= 1.27D-01 ExpMax= 4.17D+03 ExpMxC= 6.27D+02 IAcc=2 IRadAn=         4 AccDes= 0.00D+00
 Harris functional with IExCor=  402 and IRadAn=       4 diagonalized for initial guess.
 HarFok:  IExCor=  402 AccDes= 0.00D+00 IRadAn=         4 IDoV= 1 UseB2=F ITyADJ=14
 ICtDFT=  3500011 ScaDFX=  1.000000  1.000000  1.000000  1.000000
 FoFCou: FMM=F IPFlag=           0 FMFlag=      100000 FMFlg1=           0
         NFxFlg=           0 DoJE=T BraDBF=F KetDBF=T FulRan=T
         wScrn=  0.000000 ICntrl=       500 IOpCl=  0 I1Cent=   200000004 NGrid=           0
         NMat0=    1 NMatS0=      1 NMatT0=    0 NMatD0=    1 NMtDS0=    0 NMtDT0=    0
 Petite list used in FoFCou.
 Keep R1 and R2 ints in memory in canonical form, NReq=29209870.
 Requested convergence on RMS density matrix=1.00D-08 within1024 cycles.
 Requested convergence on MAX density matrix=1.00D-06.
 Requested convergence on             energy=1.00D-06.
 No special actions if energy rises.
 Integral accuracy reduced to 1.0D-05 until final iterations.
 Initial convergence to 1.0D-05 achieved.  Increase integral accuracy.
 SCF Done:  E(UB3LYP) =  -164.063186876     A.U. after   13 cycles
            NFock= 13  Conv=0.64D-08     -V/T= 2.0096
 <Sx>= 0.0000 <Sy>= 0.0000 <Sz>= 0.0000 <S**2>=-0.0000 S=-0.0000
 <L.S>= 0.000000000000E+00
 Annihilation of the first spin contaminant:
 S**2 before annihilation    -0.0000,   after     0.0000
 DoSCS=F DFT=T ScalE2(SS,OS)=  1.000000  1.000000
 Range of M.O.s used for correlation:     1   100
 NBasis=   100 NAE=    16 NBE=    16 NFC=     0 NFV=     0
 NROrb=    100 NOA=    16 NOB=    16 NVA=    84 NVB=    84
 Symmetrizing basis deriv contribution to polar:
 IMax=3 JMax=2 DiffMx= 0.00D+00
 G2DrvN: will do    13 centers at a time, making    1 passes.
 Calling FoFCou, ICntrl=  3107 FMM=F I1Cent=   0 AccDes= 0.00D+00.
 End of G2Drv F.D. properties file   721 does not exist.
 End of G2Drv F.D. properties file   722 does not exist.
 End of G2Drv F.D. properties file   788 does not exist.
          IDoAtm=111111111111
          Differentiating once with respect to electric field.
                with respect to dipole field.
          Differentiating once with respect to nuclear coordinates.
 Keep R1 and R2 ints in memory in canonical form, NReq=29207822.
          There are    39 degrees of freedom in the 1st order CPHF.  IDoFFX=6 NUNeed=     3.
     36 vectors produced by pass  0 Test12= 6.89D-15 2.56D-09 XBig12= 8.00D+01 3.23D+00.
 AX will form    36 AO Fock derivatives at one time.
     36 vectors produced by pass  1 Test12= 6.89D-15 2.56D-09 XBig12= 3.35D+00 2.44D-01.
     36 vectors produced by pass  2 Test12= 6.89D-15 2.56D-09 XBig12= 2.67D-02 1.69D-02.
     36 vectors produced by pass  3 Test12= 6.89D-15 2.56D-09 XBig12= 5.01D-05 7.98D-04.
     36 vectors produced by pass  4 Test12= 6.89D-15 2.56D-09 XBig12= 3.55D-08 1.81D-05.
     14 vectors produced by pass  5 Test12= 6.89D-15 2.56D-09 XBig12= 2.09D-11 4.02D-07.
      3 vectors produced by pass  6 Test12= 6.89D-15 2.56D-09 XBig12= 7.39D-15 8.15D-09.
 InvSVY:  IOpt=1 It=  1 EMax= 1.24D-14
 Solved reduced A of dimension   197 with    39 vectors.
 Isotropic polarizability for W=    0.000000       43.31 Bohr**3.
 End of Minotr F.D. properties file   721 does not exist.
 End of Minotr F.D. properties file   722 does not exist.
 End of Minotr F.D. properties file   788 does not exist.
 Calling FoFJK, ICntrl=    100127 FMM=F ISym2X=0 I1Cent= 0 IOpClX= 1 NMat=1 NMatS=1 NMatT=0.
 ***** Axes restored to original set *****
 -------------------------------------------------------------------
 Center     Atomic                   Forces (Hartrees/Bohr)
 Number     Number              X              Y              Z
 -------------------------------------------------------------------
      1        7           0.002964018    0.001932727   -0.003190650
      2        5          -0.002114937    0.002748837    0.001234747
      3        7          -0.002018102    0.005399731    0.007192101
      4        5          -0.004594154   -0.000624540   -0.001433375
      5        1          -0.000428612   -0.009037695   -0.006554901
      6        1           0.001670453   -0.001297137    0.000418771
      7        1           0.000084296   -0.001228929    0.000921530
      8        1           0.001718556   -0.000790916   -0.000214269
      9        1          -0.002700391    0.001125669    0.001615098
     10        1           0.002857413    0.005964801    0.000300513
     11        1          -0.002293662   -0.001205350    0.002743925
     12        1           0.004855123   -0.002987198   -0.003033490
 -------------------------------------------------------------------
 Cartesian Forces:  Max     0.009037695 RMS     0.003296354
 FormGI is forming the generalized inverse of G from B-inverse, IUseBI=4.

 GradGradGradGradGradGradGradGradGradGradGradGradGradGradGradGradGradGrad
 Berny optimization.
 Internal  Forces:  Max     0.005918726 RMS     0.002333936
 Search for a saddle point.
 Step number   2 out of a maximum of   52
 All quantities printed in internal units (Hartrees-Bohrs-Radians)
 Swapping is turned off.
 Second derivative matrix not updated -- analytic derivatives used.
 ITU=  0  0
     Eigenvalues ---   -0.02343   0.00105   0.00259   0.00636   0.01004
     Eigenvalues ---    0.01970   0.02418   0.03541   0.04664   0.05594
     Eigenvalues ---    0.06992   0.07535   0.08098   0.08775   0.10389
     Eigenvalues ---    0.10637   0.11047   0.12084   0.12405   0.14616
     Eigenvalues ---    0.21890   0.24018   0.24412   0.25906   0.35183
     Eigenvalues ---    0.46072   0.47548   0.47991   0.48252   0.49803
 Eigenvectors required to have negative eigenvalues:
                          R9        A16       D9        D5        D4
   1                    0.54082   0.45482   0.29953   0.29201  -0.28789
                          D2        D12       A14       A10       R5
   1                   -0.28222   0.22685  -0.12770  -0.11326  -0.10049
 RFO step:  Lambda0=3.095857173D-04 Lambda=-1.00186831D-02.
 Linear search not attempted -- option 19 set.
 Maximum step size (   0.300) exceeded in Quadratic search.
    -- Step size scaled by   0.943
 Iteration  1 RMS(Cart)=  0.16469020 RMS(Int)=  0.04409839
 Iteration  2 RMS(Cart)=  0.05583526 RMS(Int)=  0.00396106
 Iteration  3 RMS(Cart)=  0.00355786 RMS(Int)=  0.00146459
 Iteration  4 RMS(Cart)=  0.00001298 RMS(Int)=  0.00146454
 Iteration  5 RMS(Cart)=  0.00000000 RMS(Int)=  0.00146454
 Variable       Old X    -DE/DX   Delta X   Delta X   Delta X     New X
                                 (Linear)    (Quad)   (Total)
    R1        2.61981   0.00296   0.00000   0.02695   0.02695   2.64676
    R2        1.91087  -0.00087   0.00000  -0.00485  -0.00485   1.90602
    R3        1.90449  -0.00007   0.00000  -0.00203  -0.00203   1.90246
    R4        2.24024   0.00141   0.00000   0.00605   0.00605   2.24629
    R5        2.32607   0.00303   0.00000   0.03924   0.03924   2.36531
    R6        2.75598  -0.00011   0.00000  -0.02472  -0.02472   2.73125
    R7        1.89386   0.00592   0.00000   0.01063   0.01063   1.90449
    R8        1.90299   0.00345   0.00000   0.00414   0.00414   1.90713
    R9        2.85689   0.00158   0.00000  -0.06062  -0.06062   2.79627
   R10        2.29339   0.00175   0.00000   0.02635   0.02635   2.31973
   R11        2.25942   0.00236   0.00000   0.00474   0.00474   2.26416
    A1        2.12681  -0.00018   0.00000   0.01529   0.01481   2.14163
    A2        2.15430   0.00032   0.00000  -0.01174  -0.01222   2.14208
    A3        2.00203  -0.00015   0.00000  -0.00401  -0.00448   1.99755
    A4        2.14911   0.00012   0.00000  -0.01779  -0.02245   2.12666
    A5        2.04393   0.00029   0.00000   0.00166  -0.00282   2.04111
    A6        2.05933  -0.00048   0.00000  -0.02536  -0.03010   2.02923
    A7        2.16425  -0.00082   0.00000  -0.02224  -0.02316   2.14109
    A8        2.04088  -0.00035   0.00000   0.03975   0.03882   2.07970
    A9        1.92073   0.00157   0.00000   0.02751   0.02646   1.94719
   A10        1.87048   0.00101   0.00000   0.09707   0.09644   1.96692
   A11        2.01980   0.00057   0.00000  -0.00600  -0.00462   2.01517
   A12        2.13241  -0.00023   0.00000   0.00107  -0.00091   2.13150
   A13        1.74656  -0.00119   0.00000  -0.09260  -0.09192   1.65464
   A14        1.60399  -0.00119   0.00000   0.01700   0.01529   1.61928
   A15        1.98152   0.00036   0.00000  -0.01319  -0.01337   1.96815
   A16        1.82842  -0.00188   0.00000  -0.23184  -0.23184   1.59657
    D1       -3.03954  -0.00155   0.00000  -0.09122  -0.09070  -3.13024
    D2        0.37193  -0.00120   0.00000   0.09047   0.08993   0.46186
    D3        0.09225  -0.00282   0.00000  -0.15179  -0.15125  -0.05900
    D4       -2.77947  -0.00247   0.00000   0.02990   0.02939  -2.75008
    D5       -1.62755  -0.00194   0.00000  -0.21187  -0.21107  -1.83862
    D6        1.76965  -0.00170   0.00000  -0.04072  -0.04152   1.72812
    D7        0.45097   0.00456   0.00000   0.38190   0.38242   0.83339
    D8        2.38150   0.00404   0.00000   0.32691   0.32703   2.70853
    D9       -1.35751   0.00544   0.00000   0.28967   0.28946  -1.06805
   D10       -2.05819   0.00328   0.00000   0.28940   0.28963  -1.76856
   D11       -0.12766   0.00276   0.00000   0.23441   0.23424   0.10658
   D12        2.41652   0.00416   0.00000   0.19716   0.19667   2.61319
   D13        1.92916  -0.00163   0.00000  -0.06950  -0.07203   1.85714
   D14       -0.18415  -0.00211   0.00000  -0.05768  -0.05631  -0.24046
   D15       -2.17920  -0.00209   0.00000  -0.03696  -0.03581  -2.21501
         Item               Value     Threshold  Converged?
 Maximum Force            0.005919     0.000450     NO 
 RMS     Force            0.002334     0.000300     NO 
 Maximum Displacement     0.553056     0.001800     NO 
 RMS     Displacement     0.201779     0.001200     NO 
 Predicted change in Energy=-8.256946D-03
 GradGradGradGradGradGradGradGradGradGradGradGradGradGradGradGradGradGrad

                          Input orientation:                          
 ---------------------------------------------------------------------
 Center     Atomic      Atomic             Coordinates (Angstroms)
 Number     Number       Type             X           Y           Z
 ---------------------------------------------------------------------
      1          7           0        2.300428    0.507428    0.265043
      2          5           0        2.019538   -0.765960    0.776202
      3          7           0       -0.314342   -1.101765   -0.958660
      4          5           0        0.403247   -1.687094    0.151024
      5          1           0       -0.129965   -1.350470   -1.917743
      6          1           0        2.354493   -1.090899    1.869450
      7          1           0        1.868626   -1.690003   -0.054487
      8          1           0        2.014125    0.799984   -0.656780
      9          1           0        2.752075    1.224629    0.808330
     10          1           0       -0.654290   -0.154815   -0.879766
     11          1           0        0.443899   -1.005869    1.171397
     12          1           0        0.374303   -2.862915    0.379388
 ---------------------------------------------------------------------
                    Distance matrix (angstroms):
                    1          2          3          4          5
     1  N    0.000000
     2  B    1.400607   0.000000
     3  N    3.305144   2.927372   0.000000
     4  B    2.903140   1.962583   1.445317   0.000000
     5  H    3.758078   3.495620   1.007814   2.162736   0.000000
     6  H    2.265325   1.188685   3.888574   2.667545   4.536821
     7  H    2.262135   1.251669   2.434933   1.479722   2.753429
     8  H    1.008621   2.122651   3.021512   3.071323   3.288099
     9  H    1.006739   2.121341   4.235242   3.798312   4.729563
    10  H    3.237207   3.203917   1.009210   2.128096   1.667904
    11  H    2.560907   1.642064   2.263022   1.227551   3.160831
    12  H    3.883586   2.694714   2.316517   1.198142   2.796174
                    6          7          8          9         10
     6  H    0.000000
     7  H    2.072807   0.000000
     8  H    3.173819   2.565923   0.000000
     9  H    2.577929   3.165441   1.694533   0.000000
    10  H    4.181773   3.066430   2.842850   4.044237   0.000000
    11  H    2.035898   2.000170   3.011468   3.230265   2.477414
    12  H    3.046552   1.948581   4.144814   4.748243   3.158683
                   11         12
    11  H    0.000000
    12  H    2.020085   0.000000
 Stoichiometry    B2H8N2
 Framework group  C1[X(B2H8N2)]
 Deg. of freedom    30
 Full point group                 C1      NOp   1
 Largest Abelian subgroup         C1      NOp   1
 Largest concise Abelian subgroup C1      NOp   1
                         Standard orientation:                         
 ---------------------------------------------------------------------
 Center     Atomic      Atomic             Coordinates (Angstroms)
 Number     Number       Type             X           Y           Z
 ---------------------------------------------------------------------
      1          7           0       -1.633714   -0.561330   -0.028922
      2          5           0       -0.984136    0.677759   -0.095300
      3          7           0        1.670549   -0.547861    0.046158
      4          5           0        0.971103    0.716717    0.069790
      5          1           0        2.021949   -0.959479   -0.804005
      6          1           0       -1.508168    1.680938    0.268010
      7          1           0       -0.087922    0.802751   -0.960085
      8          1           0       -1.198016   -1.421607   -0.324568
      9          1           0       -2.550244   -0.674695    0.371884
     10          1           0        1.436503   -1.252079    0.730120
     11          1           0        0.207108    0.879595    1.016713
     12          1           0        1.486111    1.736530   -0.291170
 ---------------------------------------------------------------------
 Rotational constants (GHZ):          14.2889763           4.2105914           3.4161272
 Standard basis: 6-31G(d,p) (6D, 7F)
 There are   100 symmetry adapted cartesian basis functions of A   symmetry.
 There are   100 symmetry adapted basis functions of A   symmetry.
   100 basis functions,   168 primitive gaussians,   100 cartesian basis functions
    16 alpha electrons       16 beta electrons
       nuclear repulsion energy       111.1964812795 Hartrees.
 NAtoms=   12 NActive=   12 NUniq=   12 SFac= 1.00D+00 NAtFMM=   60 NAOKFM=F Big=F
 Integral buffers will be    131072 words long.
 Raffenetti 2 integral format.
 Two-electron integral symmetry is turned on.
 One-electron integrals computed using PRISM.
 NBasis=   100 RedAO= T EigKep=  5.63D-03  NBF=   100
 NBsUse=   100 1.00D-06 EigRej= -1.00D+00 NBFU=   100
 Initial guess from the checkpoint file:  "/scratch/1311838/Gau-7883.chk"
 B after Tr=     0.000000    0.000000   -0.000000
         Rot=    0.999888   -0.003463    0.010478    0.010094 Ang=  -1.71 deg.
 Initial guess <Sx>= 0.0000 <Sy>= 0.0000 <Sz>= 0.0000 <S**2>=-0.0000 S=-0.0000
 ExpMin= 1.27D-01 ExpMax= 4.17D+03 ExpMxC= 6.27D+02 IAcc=2 IRadAn=         4 AccDes= 0.00D+00
 Harris functional with IExCor=  402 and IRadAn=       4 diagonalized for initial guess.
 HarFok:  IExCor=  402 AccDes= 0.00D+00 IRadAn=         4 IDoV= 1 UseB2=F ITyADJ=14
 ICtDFT=  3500011 ScaDFX=  1.000000  1.000000  1.000000  1.000000
 FoFCou: FMM=F IPFlag=           0 FMFlag=      100000 FMFlg1=           0
         NFxFlg=           0 DoJE=T BraDBF=F KetDBF=T FulRan=T
         wScrn=  0.000000 ICntrl=       500 IOpCl=  0 I1Cent=   200000004 NGrid=           0
         NMat0=    1 NMatS0=      1 NMatT0=    0 NMatD0=    1 NMtDS0=    0 NMtDT0=    0
 Petite list used in FoFCou.
 Keep R1 and R2 ints in memory in canonical form, NReq=29209870.
 Requested convergence on RMS density matrix=1.00D-08 within1024 cycles.
 Requested convergence on MAX density matrix=1.00D-06.
 Requested convergence on             energy=1.00D-06.
 No special actions if energy rises.
 Integral accuracy reduced to 1.0D-05 until final iterations.
 Initial convergence to 1.0D-05 achieved.  Increase integral accuracy.
 SCF Done:  E(UB3LYP) =  -164.070314917     A.U. after   13 cycles
            NFock= 13  Conv=0.25D-08     -V/T= 2.0096
 <Sx>= 0.0000 <Sy>= 0.0000 <Sz>= 0.0000 <S**2>=-0.0000 S=-0.0000
 <L.S>= 0.000000000000E+00
 Annihilation of the first spin contaminant:
 S**2 before annihilation    -0.0000,   after     0.0000
 DoSCS=F DFT=T ScalE2(SS,OS)=  1.000000  1.000000
 Range of M.O.s used for correlation:     1   100
 NBasis=   100 NAE=    16 NBE=    16 NFC=     0 NFV=     0
 NROrb=    100 NOA=    16 NOB=    16 NVA=    84 NVB=    84
 Symmetrizing basis deriv contribution to polar:
 IMax=3 JMax=2 DiffMx= 0.00D+00
 G2DrvN: will do    13 centers at a time, making    1 passes.
 Calling FoFCou, ICntrl=  3107 FMM=F I1Cent=   0 AccDes= 0.00D+00.
 End of G2Drv F.D. properties file   721 does not exist.
 End of G2Drv F.D. properties file   722 does not exist.
 End of G2Drv F.D. properties file   788 does not exist.
          IDoAtm=111111111111
          Differentiating once with respect to electric field.
                with respect to dipole field.
          Differentiating once with respect to nuclear coordinates.
 Keep R1 and R2 ints in memory in canonical form, NReq=29207815.
          There are    39 degrees of freedom in the 1st order CPHF.  IDoFFX=6 NUNeed=     3.
     36 vectors produced by pass  0 Test12= 6.89D-15 2.56D-09 XBig12= 8.50D+01 3.16D+00.
 AX will form    36 AO Fock derivatives at one time.
     36 vectors produced by pass  1 Test12= 6.89D-15 2.56D-09 XBig12= 3.87D+00 2.64D-01.
     36 vectors produced by pass  2 Test12= 6.89D-15 2.56D-09 XBig12= 2.80D-02 1.73D-02.
     36 vectors produced by pass  3 Test12= 6.89D-15 2.56D-09 XBig12= 4.43D-05 6.28D-04.
     36 vectors produced by pass  4 Test12= 6.89D-15 2.56D-09 XBig12= 3.12D-08 2.21D-05.
     13 vectors produced by pass  5 Test12= 6.89D-15 2.56D-09 XBig12= 1.87D-11 4.77D-07.
      3 vectors produced by pass  6 Test12= 6.89D-15 2.56D-09 XBig12= 7.18D-15 1.05D-08.
 InvSVY:  IOpt=1 It=  1 EMax= 7.11D-15
 Solved reduced A of dimension   196 with    39 vectors.
 Isotropic polarizability for W=    0.000000       42.89 Bohr**3.
 End of Minotr F.D. properties file   721 does not exist.
 End of Minotr F.D. properties file   722 does not exist.
 End of Minotr F.D. properties file   788 does not exist.
 Calling FoFJK, ICntrl=    100127 FMM=F ISym2X=0 I1Cent= 0 IOpClX= 1 NMat=1 NMatS=1 NMatT=0.
 ***** Axes restored to original set *****
 -------------------------------------------------------------------
 Center     Atomic                   Forces (Hartrees/Bohr)
 Number     Number              X              Y              Z
 -------------------------------------------------------------------
      1        7           0.002486939    0.003842406   -0.003080635
      2        5          -0.004982679   -0.001067042    0.008453100
      3        7          -0.000382822    0.004269779    0.001467138
      4        5          -0.001527756   -0.004953262   -0.005282077
      5        1          -0.004560438   -0.005173215    0.000092974
      6        1           0.006363717   -0.000944607   -0.000571521
      7        1           0.001364503    0.001058134    0.000530971
      8        1           0.000189976    0.000329816    0.000118273
      9        1          -0.000751138    0.000172379    0.000053782
     10        1           0.004521724    0.002229930   -0.001592572
     11        1          -0.004156320    0.000566305    0.001157435
     12        1           0.001434294   -0.000330623   -0.001346868
 -------------------------------------------------------------------
 Cartesian Forces:  Max     0.008453100 RMS     0.003106146
 FormGI is forming the generalized inverse of G from B-inverse, IUseBI=4.

 GradGradGradGradGradGradGradGradGradGradGradGradGradGradGradGradGradGrad
 Berny optimization.
 Internal  Forces:  Max     0.012561643 RMS     0.003111294
 Search for a saddle point.
 Step number   3 out of a maximum of   52
 All quantities printed in internal units (Hartrees-Bohrs-Radians)
 Swapping is turned off.
 Second derivative matrix not updated -- analytic derivatives used.
 ITU=  0  0  0
     Eigenvalues ---   -0.00814   0.00358   0.00383   0.00613   0.00901
     Eigenvalues ---    0.01656   0.02773   0.04578   0.05788   0.07511
     Eigenvalues ---    0.07866   0.08270   0.08992   0.10608   0.10782
     Eigenvalues ---    0.11358   0.11670   0.12657   0.14859   0.16513
     Eigenvalues ---    0.21393   0.23886   0.25267   0.35751   0.36925
     Eigenvalues ---    0.47395   0.47823   0.48055   0.48533   0.49204
 Eigenvectors required to have negative eigenvalues:
                          R9        D9        D4        D2        D6
   1                    0.49322   0.41419  -0.37119  -0.33354  -0.26699
                          D12       A16       D15       A14       D7
   1                    0.24329   0.17668  -0.15569  -0.14664   0.14350
 RFO step:  Lambda0=2.741631732D-04 Lambda=-7.18646133D-03.
 Linear search not attempted -- option 19 set.
 Iteration  1 RMS(Cart)=  0.11518280 RMS(Int)=  0.03010476
 Iteration  2 RMS(Cart)=  0.02975391 RMS(Int)=  0.00347797
 Iteration  3 RMS(Cart)=  0.00115433 RMS(Int)=  0.00329686
 Iteration  4 RMS(Cart)=  0.00000134 RMS(Int)=  0.00329686
 Iteration  5 RMS(Cart)=  0.00000000 RMS(Int)=  0.00329686
 Variable       Old X    -DE/DX   Delta X   Delta X   Delta X     New X
                                 (Linear)    (Quad)   (Total)
    R1        2.64676   0.00540   0.00000   0.03977   0.03977   2.68653
    R2        1.90602  -0.00007   0.00000  -0.00185  -0.00185   1.90416
    R3        1.90246  -0.00019   0.00000  -0.00241  -0.00241   1.90005
    R4        2.24629   0.00153   0.00000   0.00844   0.00844   2.25473
    R5        2.36531   0.00542   0.00000   0.05341   0.05341   2.41873
    R6        2.73125   0.00077   0.00000  -0.00285  -0.00285   2.72840
    R7        1.90449   0.00035   0.00000   0.00082   0.00082   1.90531
    R8        1.90713   0.00044   0.00000   0.00059   0.00059   1.90772
    R9        2.79627   0.00385   0.00000  -0.12960  -0.12960   2.66667
   R10        2.31973   0.00114   0.00000   0.05232   0.05232   2.37206
   R11        2.26416   0.00003   0.00000  -0.00573  -0.00573   2.25843
    A1        2.14163   0.00042   0.00000   0.01072   0.01072   2.15235
    A2        2.14208  -0.00013   0.00000  -0.00999  -0.00999   2.13209
    A3        1.99755  -0.00033   0.00000  -0.00078  -0.00078   1.99677
    A4        2.12666  -0.00051   0.00000  -0.01813  -0.02978   2.09687
    A5        2.04111  -0.00106   0.00000  -0.01333  -0.02301   2.01810
    A6        2.02923  -0.00027   0.00000  -0.07510  -0.08591   1.94333
    A7        2.14109   0.00016   0.00000  -0.02299  -0.02297   2.11812
    A8        2.07970  -0.00035   0.00000   0.01815   0.01816   2.09786
    A9        1.94719   0.00043   0.00000   0.00928   0.00929   1.95649
   A10        1.96692  -0.00048   0.00000   0.05814   0.05688   2.02380
   A11        2.01517  -0.00136   0.00000  -0.03898  -0.03989   1.97529
   A12        2.13150  -0.00052   0.00000   0.00158  -0.00341   2.12809
   A13        1.65464   0.00134   0.00000  -0.02772  -0.02640   1.62824
   A14        1.61928   0.00126   0.00000   0.07968   0.07723   1.69651
   A15        1.96815   0.00080   0.00000  -0.03485  -0.03662   1.93153
   A16        1.59657   0.01256   0.00000  -0.09121  -0.09121   1.50536
    D1       -3.13024  -0.00232   0.00000  -0.11179  -0.11051   3.04243
    D2        0.46186   0.00229   0.00000   0.16996   0.16868   0.63054
    D3       -0.05900  -0.00289   0.00000  -0.11280  -0.11152  -0.17052
    D4       -2.75008   0.00172   0.00000   0.16895   0.16767  -2.58241
    D5       -1.83862   0.00290   0.00000  -0.04224  -0.03735  -1.87597
    D6        1.72812   0.00729   0.00000   0.20982   0.20492   1.93304
    D7        0.83339   0.00375   0.00000   0.30553   0.30623   1.13962
    D8        2.70853   0.00433   0.00000   0.28452   0.28343   2.99196
    D9       -1.06805   0.00278   0.00000   0.14985   0.15023  -0.91782
   D10       -1.76856   0.00311   0.00000   0.29270   0.29341  -1.47515
   D11        0.10658   0.00368   0.00000   0.27169   0.27060   0.37719
   D12        2.61319   0.00214   0.00000   0.13702   0.13741   2.75060
   D13        1.85714   0.00150   0.00000   0.00262   0.00009   1.85723
   D14       -0.24046   0.00249   0.00000   0.04188   0.04165  -0.19880
   D15       -2.21501   0.00142   0.00000   0.07050   0.07326  -2.14175
         Item               Value     Threshold  Converged?
 Maximum Force            0.012562     0.000450     NO 
 RMS     Force            0.003111     0.000300     NO 
 Maximum Displacement     0.442599     0.001800     NO 
 RMS     Displacement     0.133679     0.001200     NO 
 Predicted change in Energy=-5.353331D-03
 GradGradGradGradGradGradGradGradGradGradGradGradGradGradGradGradGradGrad

                          Input orientation:                          
 ---------------------------------------------------------------------
 Center     Atomic      Atomic             Coordinates (Angstroms)
 Number     Number       Type             X           Y           Z
 ---------------------------------------------------------------------
      1          7           0        2.228754    0.523175    0.305413
      2          5           0        1.921340   -0.771658    0.805409
      3          7           0       -0.285957   -1.085781   -0.961405
      4          5           0        0.477024   -1.679828    0.110767
      5          1           0       -0.316300   -1.504222   -1.878220
      6          1           0        2.411957   -1.152573    1.824137
      7          1           0        1.876541   -1.706152   -0.068059
      8          1           0        1.908984    0.861779   -0.588137
      9          1           0        2.737537    1.199576    0.848167
     10          1           0       -0.420077   -0.085795   -0.995709
     11          1           0        0.548273   -0.950098    1.129611
     12          1           0        0.344061   -2.826172    0.421421
 ---------------------------------------------------------------------
                    Distance matrix (angstroms):
                    1          2          3          4          5
     1  N    0.000000
     2  B    1.421651   0.000000
     3  N    3.243045   2.844726   0.000000
     4  B    2.821288   1.842104   1.443809   0.000000
     5  H    3.918659   3.570091   1.008247   2.148551   0.000000
     6  H    2.268968   1.193150   3.878459   2.637726   4.612428
     7  H    2.287670   1.279934   2.420605   1.411141   2.850616
     8  H    1.007640   2.147148   2.958054   2.999790   3.494877
     9  H    1.005465   2.133956   4.199872   3.734253   4.906081
    10  H    3.013315   3.032601   1.009524   2.137761   1.673777
    11  H    2.381984   1.422062   2.255371   1.255239   3.178299
    12  H    3.844952   2.618451   2.310431   1.195112   2.733492
                    6          7          8          9         10
     6  H    0.000000
     7  H    2.042921   0.000000
     8  H    3.182714   2.620268   0.000000
     9  H    2.567319   3.166076   1.692211   0.000000
    10  H    4.136420   2.959823   2.547260   3.875898   0.000000
    11  H    1.999170   1.941733   2.843429   3.081101   2.490323
    12  H    3.007448   1.960238   4.131486   4.702924   3.178339
                   11         12
    11  H    0.000000
    12  H    2.015662   0.000000
 Stoichiometry    B2H8N2
 Framework group  C1[X(B2H8N2)]
 Deg. of freedom    30
 Full point group                 C1      NOp   1
 Largest Abelian subgroup         C1      NOp   1
 Largest concise Abelian subgroup C1      NOp   1
                         Standard orientation:                         
 ---------------------------------------------------------------------
 Center     Atomic      Atomic             Coordinates (Angstroms)
 Number     Number       Type             X           Y           Z
 ---------------------------------------------------------------------
      1          7           0       -1.600709   -0.566320   -0.040436
      2          5           0       -0.923268    0.683542   -0.043562
      3          7           0        1.640626   -0.544326    0.062516
      4          5           0        0.916644    0.704707    0.043748
      5          1           0        2.255943   -0.805527   -0.692283
      6          1           0       -1.526335    1.692408    0.161641
      7          1           0       -0.054878    0.840258   -0.970693
      8          1           0       -1.157686   -1.436659   -0.288587
      9          1           0       -2.552559   -0.658383    0.270156
     10          1           0        1.252264   -1.349356    0.531811
     11          1           0        0.070990    0.799439    0.966526
     12          1           0        1.465965    1.751092   -0.134062
 ---------------------------------------------------------------------
 Rotational constants (GHZ):          14.6320274           4.4201870           3.5350304
 Standard basis: 6-31G(d,p) (6D, 7F)
 There are   100 symmetry adapted cartesian basis functions of A   symmetry.
 There are   100 symmetry adapted basis functions of A   symmetry.
   100 basis functions,   168 primitive gaussians,   100 cartesian basis functions
    16 alpha electrons       16 beta electrons
       nuclear repulsion energy       112.5467904238 Hartrees.
 NAtoms=   12 NActive=   12 NUniq=   12 SFac= 1.00D+00 NAtFMM=   60 NAOKFM=F Big=F
 Integral buffers will be    131072 words long.
 Raffenetti 2 integral format.
 Two-electron integral symmetry is turned on.
 One-electron integrals computed using PRISM.
 NBasis=   100 RedAO= T EigKep=  4.19D-03  NBF=   100
 NBsUse=   100 1.00D-06 EigRej= -1.00D+00 NBFU=   100
 Initial guess from the checkpoint file:  "/scratch/1311838/Gau-7883.chk"
 B after Tr=     0.000000    0.000000    0.000000
         Rot=    0.999900   -0.011639    0.007703   -0.002052 Ang=  -1.62 deg.
 Initial guess <Sx>= 0.0000 <Sy>= 0.0000 <Sz>= 0.0000 <S**2>= 0.0000 S= 0.0000
 ExpMin= 1.27D-01 ExpMax= 4.17D+03 ExpMxC= 6.27D+02 IAcc=2 IRadAn=         4 AccDes= 0.00D+00
 Harris functional with IExCor=  402 and IRadAn=       4 diagonalized for initial guess.
 HarFok:  IExCor=  402 AccDes= 0.00D+00 IRadAn=         4 IDoV= 1 UseB2=F ITyADJ=14
 ICtDFT=  3500011 ScaDFX=  1.000000  1.000000  1.000000  1.000000
 FoFCou: FMM=F IPFlag=           0 FMFlag=      100000 FMFlg1=           0
         NFxFlg=           0 DoJE=T BraDBF=F KetDBF=T FulRan=T
         wScrn=  0.000000 ICntrl=       500 IOpCl=  0 I1Cent=   200000004 NGrid=           0
         NMat0=    1 NMatS0=      1 NMatT0=    0 NMatD0=    1 NMtDS0=    0 NMtDT0=    0
 Petite list used in FoFCou.
 Keep R1 and R2 ints in memory in canonical form, NReq=29209870.
 Requested convergence on RMS density matrix=1.00D-08 within1024 cycles.
 Requested convergence on MAX density matrix=1.00D-06.
 Requested convergence on             energy=1.00D-06.
 No special actions if energy rises.
 Integral accuracy reduced to 1.0D-05 until final iterations.
 Initial convergence to 1.0D-05 achieved.  Increase integral accuracy.
 SCF Done:  E(UB3LYP) =  -164.075054575     A.U. after   13 cycles
            NFock= 13  Conv=0.27D-08     -V/T= 2.0096
 <Sx>= 0.0000 <Sy>= 0.0000 <Sz>= 0.0000 <S**2>=-0.0000 S=-0.0000
 <L.S>= 0.000000000000E+00
 Annihilation of the first spin contaminant:
 S**2 before annihilation    -0.0000,   after     0.0000
 DoSCS=F DFT=T ScalE2(SS,OS)=  1.000000  1.000000
 Range of M.O.s used for correlation:     1   100
 NBasis=   100 NAE=    16 NBE=    16 NFC=     0 NFV=     0
[...]
 - Thermochemistry -
 -------------------
 Temperature   298.150 Kelvin.  Pressure   1.00000 Atm.
 Atom     1 has atomic number  7 and mass  14.00307
 Atom     2 has atomic number  5 and mass  11.00931
 Atom     3 has atomic number  7 and mass  14.00307
 Atom     4 has atomic number  5 and mass  11.00931
 Atom     5 has atomic number  1 and mass   1.00783
 Atom     6 has atomic number  1 and mass   1.00783
 Atom     7 has atomic number  1 and mass   1.00783
 Atom     8 has atomic number  1 and mass   1.00783
 Atom     9 has atomic number  1 and mass   1.00783
 Atom    10 has atomic number  1 and mass   1.00783
 Atom    11 has atomic number  1 and mass   1.00783
 Atom    12 has atomic number  1 and mass   1.00783
 Molecular mass:    58.08736 amu.
 Principal axes and moments of inertia in atomic units:
                           1         2         3
     Eigenvalues --   116.31233 429.28041 530.33341
           X            0.99994  -0.00000  -0.01097
           Y            0.00000   1.00000  -0.00000
           Z            0.01097   0.00000   0.99994
 This molecule is an asymmetric top.
 Rotational symmetry number  1.
 Rotational temperatures (Kelvin)      0.74467     0.20177     0.16332
 Rotational constants (GHZ):          15.51634     4.20411     3.40303
    1 imaginary frequencies ignored.
 Zero-point vibrational energy     258382.7 (Joules/Mol)
                                   61.75495 (Kcal/Mol)
 Warning -- explicit consideration of   6 degrees of freedom as
           vibrations may cause significant error
 Vibrational temperatures:    208.03   251.17   270.66   537.07   596.94
          (Kelvin)            681.99   921.75  1035.21  1100.42  1226.17
                             1335.58  1537.37  1550.22  1587.76  1612.46
                             1768.03  1864.48  2219.99  2337.49  2340.02
                             2382.97  2859.88  3119.18  3805.85  3823.12
                             5220.39  5224.61  5366.47  5367.30
 
 Zero-point correction=                           0.098413 (Hartree/Particle)
 Thermal correction to Energy=                    0.104544
 Thermal correction to Enthalpy=                  0.105488
 Thermal correction to Gibbs Free Energy=         0.070084
 Sum of electronic and zero-point Energies=           -163.980334
 Sum of electronic and thermal Energies=              -163.974203
 Sum of electronic and thermal Enthalpies=            -163.973259
 Sum of electronic and thermal Free Energies=         -164.008663
 
                     E (Thermal)             CV                S
                      KCal/Mol        Cal/Mol-Kelvin    Cal/Mol-Kelvin
 Total                   65.602             21.062             74.515
 Electronic               0.000              0.000              0.000
 Translational            0.889              2.981             38.099
 Rotational               0.889              2.981             24.785
 Vibrational             63.825             15.100             11.631
 Vibration     1          0.616              1.909              2.742
 Vibration     2          0.627              1.874              2.386
 Vibration     3          0.633              1.856              2.246
 Vibration     4          0.745              1.527              1.066
 Vibration     5          0.778              1.438              0.909
 Vibration     6          0.831              1.308              0.726
                       Q            Log10(Q)             Ln(Q)
 Total Bot       0.580483D-32        -32.236210        -74.226617
 Total V=0       0.107272D+14         13.030485         30.003800
 Vib (Bot)       0.572677D-44        -44.242090       -101.871177
 Vib (Bot)    1  0.140455D+01          0.147538          0.339720
 Vib (Bot)    2  0.115266D+01          0.061700          0.142069
 Vib (Bot)    3  0.106463D+01          0.027199          0.062628
 Vib (Bot)    4  0.486632D+00         -0.312799         -0.720247
 Vib (Bot)    5  0.424857D+00         -0.371757         -0.856002
 Vib (Bot)    6  0.354643D+00         -0.450208         -1.036643
 Vib (V=0)       0.105829D+02          1.024605          2.359240
 Vib (V=0)    1  0.199090D+01          0.299049          0.688585
 Vib (V=0)    2  0.175643D+01          0.244631          0.563283
 Vib (V=0)    3  0.167620D+01          0.224325          0.516527
 Vib (V=0)    4  0.119772D+01          0.078355          0.180418
 Vib (V=0)    5  0.115613D+01          0.063006          0.145076
 Vib (V=0)    6  0.111300D+01          0.046496          0.107061
 Electronic      0.100000D+01          0.000000          0.000000
 Translational   0.174011D+08          7.240576         16.672043
 Rotational      0.582510D+05          4.765304         10.972517
 ***** Axes restored to original set *****
 -------------------------------------------------------------------
 Center     Atomic                   Forces (Hartrees/Bohr)
 Number     Number              X              Y              Z
 -------------------------------------------------------------------
      1        7          -0.000000020    0.000000386   -0.000000097
      2        5           0.000000333   -0.000000272    0.000000094
      3        7          -0.000000096    0.000000168   -0.000000286
      4        5          -0.000000265   -0.000000254    0.000000268
      5        1          -0.000000565   -0.000000062    0.000000268
      6        1           0.000000107   -0.000000156   -0.000000110
      7        1          -0.000000008   -0.000000063   -0.000000097
      8        1          -0.000000132   -0.000000228   -0.000000524
      9        1           0.000000636   -0.000000113   -0.000000098
     10        1           0.000000080    0.000000457    0.000000298
     11        1           0.000000045    0.000000088    0.000000090
     12        1          -0.000000114    0.000000049    0.000000192
 -------------------------------------------------------------------
 Cartesian Forces:  Max     0.000000636 RMS     0.000000252

 ----------------------------------------------------------------------

 Electric dipole moment (input orientation):
 (Debye = 10**-18 statcoulomb cm , SI units = C m)
                  (au)            (Debye)         (10**-30 SI)
   Tot        0.880067D+00      0.223691D+01      0.746152D+01
   x         -0.143814D+00     -0.365538D+00     -0.121930D+01
   y          0.672592D+00      0.170956D+01      0.570248D+01
   z         -0.549049D+00     -0.139554D+01     -0.465503D+01

 Dipole polarizability, Alpha (input orientation).
 (esu units = cm**3 , SI units = C**2 m**2 J**-1)
 Alpha(0;0):
               (au)            (10**-24 esu)      (10**-40 SI)
   iso        0.418389D+02      0.619989D+01      0.689830D+01
   aniso      0.246795D+02      0.365713D+01      0.406910D+01
   xx         0.423157D+02      0.627054D+01      0.697692D+01
   yx         0.880083D+01      0.130415D+01      0.145106D+01
   yy         0.441018D+02      0.653521D+01      0.727140D+01
   zx         0.108958D+02      0.161458D+01      0.179647D+01
   zy        -0.653564D+00     -0.968482D-01     -0.107758D+00
   zz         0.390992D+02      0.579390D+01      0.644659D+01

 ----------------------------------------------------------------------

 Dipole orientation:
     7          4.20651175         -1.55432192         -0.31683681
     5          3.17781785         -0.55671659         -2.61722857
     7         -0.31691996          2.85036705         -0.31681152
     5          0.71173245          1.85274563         -2.61721455
     1         -1.17719003          4.54601768         -0.30955693
     1          3.80098930         -1.46084612         -4.58637784
     1          3.31421186          1.88571851         -2.86063986
     1          3.75775441         -0.93811877          1.42727105
     1          5.06676967         -3.24997884         -0.30958550
     1          0.13185798          2.23416991          1.42729308
     1          0.57533396         -0.58969127         -2.86060849
     1          0.08852778          2.75686306         -4.58635884

 Electric dipole moment (dipole orientation):
 (Debye = 10**-18 statcoulomb cm , SI units = C m)
                  (au)            (Debye)         (10**-30 SI)
   Tot        0.880067D+00      0.223691D+01      0.746152D+01
   x          0.000000D+00      0.000000D+00      0.000000D+00
   y          0.000000D+00      0.000000D+00      0.000000D+00
   z          0.880067D+00      0.223691D+01      0.746152D+01

 Dipole polarizability, Alpha (dipole orientation).
 (esu units = cm**3 , SI units = C**2 m**2 J**-1)
 Alpha(0;0):
               (au)            (10**-24 esu)      (10**-40 SI)
   iso        0.418389D+02      0.619989D+01      0.689830D+01
   aniso      0.246795D+02      0.365713D+01      0.406910D+01
   xx         0.400858D+02      0.594010D+01      0.660926D+01
   yx        -0.141676D+02     -0.209942D+01     -0.233591D+01
   yy         0.426773D+02      0.632412D+01      0.703653D+01
   zx         0.595692D-04      0.882724D-05      0.982163D-05
   zy         0.123433D-03      0.182909D-04      0.203514D-04
   zz         0.427536D+02      0.633543D+01      0.704912D+01

 ----------------------------------------------------------------------
 1\1\GINC-MNODE009\Freq\UB3LYP\6-31G(d,p)\B2H8N2\MARIAHARRIS\03-Jul-202
 0\0\\#opt=(calcall, ts, noeigen) ub3lyp/6-31G(d,p) scf=(maxcycles=1024
 )\\something title\\0,1\N,2.2800406938,0.5697266758,0.3694516353\B,1.9
 029550121,-0.7405029561,0.814399425\N,-0.253556576,-1.106844754,-1.020
 7611036\B,0.521357746,-1.6572854249,0.0532017879\H,-0.7709423526,-1.71
 34774108,-1.6345276821\H,2.4343767659,-1.2051575265,1.7762558073\H,1.8
 955918224,-1.6609900277,-0.10481619\H,1.8705753748,1.0480284451,-0.416
 7476882\H,2.7961660144,1.1822275082,0.9784328445\H,-0.1457208064,-0.17
 44291932,-1.3861600541\H,0.5708147225,-0.9336738832,1.1331317801\H,0.3
 30479583,-2.7853704528,0.3915364379\\Version=EM64L-G16RevA.03\State=1-
 A\HF=-164.0787468\S2=0.\S2-1=0.\S2A=0.\RMSD=3.331e-09\RMSF=2.517e-07\Z
 eroPoint=0.0984128\Thermal=0.1045439\Dipole=-0.1438138,0.6725923,-0.54
 90488\DipoleDeriv=-0.7786424,-0.1818077,0.1423461,-0.354738,-0.9741328
 ,-0.0637209,0.3003632,0.1625552,-0.4208342,0.7884185,0.5057165,0.07920
 18,0.6139187,1.1042511,0.0363156,0.0623182,-0.0900383,0.4531843,-0.993
 2882,0.0490459,-0.2015588,0.2841781,-0.3466728,0.1511499,-0.2833823,-0
 .058834,-0.8336499,1.0343171,0.0835945,0.5543158,0.0177596,0.4878039,-
 0.0709375,0.6230995,0.0665134,0.8237342,0.2820315,-0.0157299,-0.0413,-
 0.0095946,0.154013,0.0173343,-0.1094364,-0.0163342,0.1524784,-0.152876
 4,-0.012272,-0.0923365,0.0013683,-0.1263525,0.0448862,-0.1024421,0.068
 2167,-0.2139077,-0.4262177,-0.1410028,-0.1205638,-0.1576007,-0.1622595
 ,-0.1472889,-0.1326127,-0.1365359,-0.1904075,0.2272403,0.014662,-0.119
 8985,-0.0108439,0.1389628,0.068768,-0.1143857,0.0372497,0.1450515,0.29
 17155,0.0043341,-0.0474239,-0.0688665,0.1256042,-0.0074271,-0.0614412,
 0.0086755,0.1712026,0.2590365,-0.0680699,-0.0368653,-0.0635883,0.07704
 54,0.0468267,-0.0681307,0.0728377,0.1751733,-0.4072305,-0.1861583,-0.0
 794407,-0.1917785,-0.2065685,-0.1310505,-0.0946086,-0.1476224,-0.16508
 7,-0.1245041,-0.0523123,-0.0364763,-0.0602143,-0.2716943,0.0551441,-0.
 0193413,0.0333165,-0.0969382\Polar=42.3157093,8.8008261,44.1017977,10.
 8957564,-0.653564,39.099205\PG=C01 [X(B2H8N2)]\NImag=1\\0.27549073,0.1
 6363305,0.66778355,0.30682421,-0.09921957,0.56309909,-0.05893131,-0.06
 207846,-0.00933273,0.21942144,-0.05960773,-0.26993997,0.07102999,0.049
 20716,0.45083425,-0.00389061,0.08296395,-0.09238471,0.09659623,-0.1008
 9795,0.35950259,0.00024784,-0.00521109,0.00200011,-0.00578071,0.017061
 45,-0.00288322,0.28096677,0.00172302,0.00434644,-0.00063226,-0.0017932
 9,-0.00277314,-0.01112189,0.14606930,0.71234839,-0.00248205,-0.0061435
 8,0.00339792,0.00633331,0.01178673,-0.00620711,0.31072190,-0.08676177,
 0.51305875,-0.00270071,0.00959599,0.00227106,-0.00528408,-0.05659469,-
 0.05725263,-0.10754480,0.03306501,-0.11606485,0.23593855,-0.00804098,-
 0.00600955,-0.01005623,-0.03681726,-0.03195977,0.01748630,0.04014044,-
 0.11805066,0.08297511,0.01306739,0.42758504,0.01297938,0.01317132,-0.0
 0605074,-0.06843103,-0.00574198,-0.00311436,-0.10981371,0.07354166,-0.
 19566088,0.12900860,-0.09553218,0.36623480,0.00056552,0.00106702,-0.00
 086142,-0.00413526,0.00016933,0.00062487,-0.12458434,-0.13769558,-0.14
 907809,-0.00725144,-0.00924994,-0.00870610,0.13622352,0.00003520,0.000
 55283,-0.00019347,0.00049991,-0.00181013,0.00075967,-0.13641459,-0.205
 38342,-0.13565447,0.00624339,0.00845201,0.00637847,0.14352447,0.214081
 57,-0.00004846,-0.00027874,0.00087591,0.00358130,0.00115444,-0.0034452
 0,-0.16222681,-0.14864428,-0.19710400,-0.00664952,-0.01492109,-0.00700
 411,0.15716468,0.15058229,0.19814784,0.00712674,-0.00243194,0.00635408
 ,-0.07105725,0.03116993,-0.07395144,-0.00030265,-0.00333755,-0.0022298
 1,-0.00792040,0.00782550,0.00098686,0.00020306,0.00035575,-0.00117136,
 0.07530087,0.01000648,-0.00563797,0.01904024,0.02789971,-0.06624930,0.
 06021162,-0.00185461,-0.00085259,0.00022724,0.00093062,0.00139935,-0.0
 0866090,-0.00086861,0.00035238,0.00012443,-0.03123078,0.06811826,-0.00
 240502,0.00414267,-0.00276498,-0.07366112,0.06104899,-0.15966119,-0.00
 245808,-0.00026365,0.00026311,0.00647708,0.00007327,-0.00527482,-0.000
 71932,0.00042539,0.00053454,0.08002158,-0.06855067,0.16917309,-0.00128
 388,-0.01543436,-0.00601851,-0.03240271,0.01565714,0.01390598,-0.01491
 835,0.00650710,-0.01324253,-0.03557661,0.00544256,0.02057341,-0.000808
 84,0.00134412,0.00138378,0.00323118,-0.00685842,-0.00920218,0.09783822
 ,-0.00612194,-0.01685618,-0.00593774,0.00250640,-0.05064437,-0.0394031
 0,-0.00407907,0.00493882,-0.00199077,0.01793972,-0.02089766,-0.0071833
 5,-0.00071844,0.00043505,0.00070835,0.00026245,0.00310184,0.00199878,-
 0.00743473,0.08632406,-0.00163587,-0.00182863,0.00736431,0.00933735,-0
 .03636686,-0.06183274,-0.01853132,0.00371107,-0.00284920,0.02282605,-0
 .00982292,-0.02565125,-0.00184577,0.00140872,0.00136730,0.00183844,-0.
 00514261,-0.00682716,-0.02188684,0.05423685,0.09681480,-0.08995087,0.0
 6086615,-0.15507022,0.00064326,-0.00221609,0.00994871,-0.00082417,0.00
 114186,0.00057687,0.00392458,-0.00147370,-0.00030316,0.00010847,0.0002
 3756,-0.00014909,0.00197679,-0.00185328,-0.00112079,-0.00240435,-0.001
 46677,-0.00100532,0.09497093,0.06591222,-0.15161734,0.16631280,0.01577
 350,-0.00398123,0.01693761,0.00059226,0.00044749,-0.00088866,-0.000081
 63,0.00032191,0.00243275,0.00014882,0.00016193,-0.00035012,-0.00257840
 ,-0.00318249,0.00117369,0.00053405,0.00028706,-0.00016530,-0.06815683,
 0.14551721,-0.15024510,0.14717848,-0.28439606,0.00006206,0.00206175,-0
 .00596984,0.00043909,-0.00025261,-0.00115744,-0.00159820,0.00057466,0.
 00264135,0.00019494,-0.00000127,-0.00010698,-0.00039864,0.00141837,0.0
 0195965,0.00092269,0.00032217,0.00024751,0.15838345,-0.16339911,0.3022
 6684,-0.12288379,-0.13280950,-0.14992988,-0.00357379,-0.00535849,-0.00
 378696,0.00103788,-0.00105822,0.00080517,-0.00471258,0.00037458,0.0007
 4746,-0.00008411,-0.00006905,0.00003408,-0.00106967,0.00114670,0.00128
 203,0.00379236,0.00379703,0.00156156,-0.00815548,-0.00986513,-0.005613
 32,0.13551559,-0.14828074,-0.20985904,-0.14666198,-0.01117236,-0.00874
 372,-0.01744993,-0.00007176,0.00066013,0.00003844,0.00320109,-0.002775
 26,0.00019018,0.00000596,0.00006074,-0.00001122,0.00136756,0.00145138,
 0.00015174,-0.00281092,-0.00269352,0.00061803,0.01262179,0.01196031,0.
 01375649,0.14568827,0.20925269,-0.15416428,-0.13738883,-0.19432878,0.0
 0601342,0.00638498,0.00651387,-0.00006339,0.00011184,0.00029624,0.0016
 5849,0.00062231,-0.00190273,-0.00001037,-0.00008967,0.00004376,0.00058
 937,-0.00032102,-0.00077241,-0.00077846,-0.00057662,-0.00023873,-0.011
 43560,-0.02068531,-0.01472287,0.15654262,0.14916490,0.20368458,-0.0004
 8669,0.00014460,0.00145768,0.00349260,0.00103718,-0.00223332,-0.028945
 38,-0.05284846,-0.01249933,0.00038562,0.01589863,-0.00098065,-0.002878
 50,-0.01668450,0.01053243,-0.00019506,0.00009886,0.00051742,0.00062051
 ,0.00127756,0.00083963,-0.00064426,-0.00160535,-0.00066601,0.00020326,
 -0.00021682,0.00018703,0.03001896,0.00026468,-0.00073911,-0.00023211,-
 0.00088506,0.00178602,0.00067866,-0.05326710,-0.39682489,0.13383233,-0
 .00054785,-0.00673274,0.00113954,0.00087247,-0.01662392,0.01179323,0.0
 0006816,-0.00019504,-0.00022550,-0.00138045,-0.00082081,-0.00117563,-0
 .00061897,0.00040611,0.00020391,0.00020203,-0.00003490,-0.00002667,0.0
 5455199,0.41847782,0.00106928,-0.00098065,-0.00030835,-0.00158774,0.00
 239788,0.00160923,-0.01165495,0.15417842,-0.10019414,0.01079585,0.0164
 1967,-0.00296063,-0.00132948,-0.02393969,0.00858443,0.00031552,-0.0002
 8933,-0.00012745,-0.00119914,-0.00136089,-0.00088221,-0.00134688,-0.00
 037759,0.00087202,0.00024739,-0.00028905,-0.00000492,0.00715146,-0.147
 40493,0.09425825,-0.00655922,-0.01582761,0.00588644,-0.03623010,0.0130
 6750,0.01382303,-0.00511943,-0.00577882,-0.01902327,-0.03109724,0.0055
 9767,0.01918520,0.00330008,0.00084207,-0.00434377,-0.00736210,0.002302
 96,0.00170758,-0.01403720,0.00715166,0.01030462,0.00064238,-0.00083749
 ,-0.00164989,-0.00051147,0.00082597,0.00142660,-0.00233879,0.00015000,
 0.00127971,0.09648625,-0.01736308,-0.01132732,0.00709478,0.01190859,-0
 .01405452,-0.01030977,-0.00282500,0.00646759,-0.00101836,0.00477375,-0
 .04275738,-0.03212543,0.00185303,0.00008177,-0.00011416,-0.00083864,0.
 00161117,0.00065663,0.00493369,-0.00286199,-0.00570141,0.00055556,-0.0
 0046129,-0.00161932,-0.00165388,0.00072940,0.00224583,-0.00134463,0.00
 007754,0.00028982,-0.00246261,0.06938666,-0.00367379,-0.00178196,0.005
 05779,0.02545981,-0.00470053,-0.03184089,-0.00837969,-0.00191466,-0.01
 212390,0.00663482,-0.03882190,-0.07102504,0.00264940,0.00068672,-0.002
 52176,-0.01243582,0.00152422,0.00337364,0.01218690,-0.00603665,-0.0094
 9798,0.00127390,-0.00074352,-0.00126358,-0.00090834,0.00035574,0.00077
 560,-0.00107427,-0.00013825,0.00039147,-0.02207249,0.04994775,0.115103
 97,-0.00063437,-0.00151386,-0.00358081,-0.00616209,-0.00359269,0.00909
 936,0.00576733,0.01400565,-0.00381733,-0.03816089,-0.03276489,0.004753
 74,-0.00065816,0.00008565,0.00189273,0.00006846,0.00028036,-0.00043917
 ,-0.00405035,-0.01311388,-0.00180253,-0.00028730,0.00016399,0.00016896
 ,0.00044180,-0.00115803,0.00003457,0.00076773,0.00059012,-0.00374101,0
 .00282683,0.00246323,0.00033956,0.04008100,-0.00216018,-0.00069635,-0.
 00054446,0.00495115,-0.00246413,0.00014483,-0.00014024,-0.00532416,0.0
 0359776,-0.03159278,-0.20857529,0.05238993,0.00089148,-0.00036082,-0.0
 0004313,-0.00063204,0.00008301,-0.00063135,-0.00049977,-0.00031230,0.0
 0022869,0.00036274,0.00014034,-0.00024351,-0.00039434,-0.00000822,0.00
 055826,-0.00030907,0.00122391,0.00135634,-0.00503130,-0.00689163,0.001
 62306,0.03455435,0.22318563,-0.00232767,0.00016555,0.00043861,0.005629
 13,-0.00815745,-0.00316964,0.00285007,0.01804814,-0.00171935,0.0018932
 7,0.05100301,-0.05023159,0.00191666,-0.00036268,0.00062827,0.00008120,
 0.00041840,0.00012397,0.00335489,0.00522298,0.00198535,0.00024813,-0.0
 0024724,-0.00037059,-0.00098180,0.00013665,0.00065639,-0.00323206,0.00
 155541,-0.00123769,-0.00652375,-0.00934636,0.00357067,-0.00290807,-0.0
 5843641,0.04932562\\0.00000002,-0.00000039,0.00000010,-0.00000033,0.00
 000027,-0.00000009,0.00000010,-0.00000017,0.00000029,0.00000027,0.0000
 0025,-0.00000027,0.00000056,0.00000006,-0.00000027,-0.00000011,0.00000
 016,0.00000011,0.,0.00000006,0.00000010,0.00000013,0.00000023,0.000000
 52,-0.00000064,0.00000011,0.00000010,-0.00000008,-0.00000046,-0.000000
 30,-0.00000004,-0.00000009,-0.00000009,0.00000011,-0.00000005,-0.00000
 019\\\@


 MUD THROWN IS GROUND LOST -- FROM A TEA BAG
 Job cpu time:       0 days  2 hours 52 minutes 38.0 seconds.
 Elapsed time:       0 days  0 hours 43 minutes 20.2 seconds.
 File lengths (MBytes):  RWF=     29 Int=      0 D2E=      0 Chk=      2 Scr=      1
 Normal termination of Gaussian 16 at Fri Jul  3 18:26:48 2020.
