 Entering Gaussian System, Link 0=/opt/gaussian/g16/legacy/g16/g16
 Initial command:
 /opt/gaussian/g16/legacy/g16/l1.exe "/scratch/1311850/Gau-12464.inp" -scrdir="/scratch/1311850/"
 Entering Link 1 = /opt/gaussian/g16/legacy/g16/l1.exe PID=     12481.
  
 Copyright (c) 1988,1990,1992,1993,1995,1998,2003,2009,2016,
            Gaussian, Inc.  All Rights Reserved.
  
 This is part of the Gaussian(R) 16 program.  It is based on
 the Gaussian(R) 09 system (copyright 2009, Gaussian, Inc.),
 the Gaussian(R) 03 system (copyright 2003, Gaussian, Inc.),
 the Gaussian(R) 98 system (copyright 1998, Gaussian, Inc.),
 the Gaussian(R) 94 system (copyright 1995, Gaussian, Inc.),
 the Gaussian 92(TM) system (copyright 1992, Gaussian, Inc.),
 the Gaussian 90(TM) system (copyright 1990, Gaussian, Inc.),
 the Gaussian 88(TM) system (copyright 1988, Gaussian, Inc.),
 the Gaussian 86(TM) system (copyright 1986, Carnegie Mellon
 University), and the Gaussian 82(TM) system (copyright 1983,
 Carnegie Mellon University). Gaussian is a federally registered
 trademark of Gaussian, Inc.
  
 This software contains proprietary and confidential information,
 including trade secrets, belonging to Gaussian, Inc.
  
 This software is provided under written license and may be
 used, copied, transmitted, or stored only in accord with that
 written license.
  
 The following legend is applicable only to US Government
 contracts under FAR:
  
                    RESTRICTED RIGHTS LEGEND
  
 Use, reproduction and disclosure by the US Government is
 subject to restrictions as set forth in subparagraphs (a)
 and (c) of the Commercial Computer Software - Restricted
 Rights clause in FAR 52.227-19.
  
 Gaussian, Inc.
 340 Quinnipiac St., Bldg. 40, Wallingford CT 06492
  
  
 ---------------------------------------------------------------
 Warning -- This program may not be used in any manner that
 competes with the business of Gaussian, Inc. or will provide
 assistance to any competitor of Gaussian, Inc.  The licensee
 of this program is prohibited from giving any competitor of
 Gaussian, Inc. access to this program.  By using this program,
 the user acknowledges that Gaussian, Inc. is engaged in the
 business of creating and licensing software in the field of
 computational chemistry and represents and warrants to the
 licensee that it is not a competitor of Gaussian, Inc. and that
 it will not use this program in any manner prohibited above.
 ---------------------------------------------------------------
  

 Cite this work as:
 Gaussian 16, Revision A.03,
 M. J. Frisch, G. W. Trucks, H. B. Schlegel, G. E. Scuseria, 
 M. A. Robb, J. R. Cheeseman, G. Scalmani, V. Barone, 
 G. A. Petersson, H. Nakatsuji, X. Li, M. Caricato, A. V. Marenich, 
 J. Bloino, B. G. Janesko, R. Gomperts, B. Mennucci, H. P. Hratchian, 
 J. V. Ortiz, A. F. Izmaylov, J. L. Sonnenberg, D. Williams-Young, 
 F. Ding, F. Lipparini, F. Egidi, J. Goings, B. Peng, A. Petrone, 
 T. Henderson, D. Ranasinghe, V. G. Zakrzewski, J. Gao, N. Rega, 
 G. Zheng, W. Liang, M. Hada, M. Ehara, K. Toyota, R. Fukuda, 
 J. Hasegawa, M. Ishida, T. Nakajima, Y. Honda, O. Kitao, H. Nakai, 
 T. Vreven, K. Throssell, J. A. Montgomery, Jr., J. E. Peralta, 
 F. Ogliaro, M. J. Bearpark, J. J. Heyd, E. N. Brothers, K. N. Kudin, 
 V. N. Staroverov, T. A. Keith, R. Kobayashi, J. Normand, 
 K. Raghavachari, A. P. Rendell, J. C. Burant, S. S. Iyengar, 
 J. Tomasi, M. Cossi, J. M. Millam, M. Klene, C. Adamo, R. Cammi, 
 J. W. Ochterski, R. L. Martin, K. Morokuma, O. Farkas, 
 J. B. Foresman, and D. J. Fox, Gaussian, Inc., Wallingford CT, 2016.
 
 ******************************************
 Gaussian 16:  EM64L-G16RevA.03 25-Dec-2016
                 3-Jul-2020 
 ******************************************
 %mem=16GB
 %nprocshared=4
 Will use up to    4 processors via shared memory.
 ----------------------------------------------------------------------
 #irc=(forward calcfc, maxpoint=100, stepsize=5) ub3lyp/6-31G(d,p) scf=
 (maxcycles=1024)
 ----------------------------------------------------------------------
 1/10=4,18=10,22=1,26=3,38=1,39=5,42=100,44=3,172=1/1,23;
 2/12=2,17=6,18=5,29=1,40=1/2;
 3/5=1,6=6,7=101,11=2,25=1,30=1,71=2,74=-5,116=2,140=1/1,2,3;
 4//1;
 5/5=2,7=1024,38=5/2;
 8/6=4,10=90,11=11/1;
 11/6=1,8=1,9=11,15=111,16=1/1,2,10;
 10/6=1,13=1/2;
 6/7=2,8=2,9=2,10=2,28=1/1;
 7/10=1,18=20,25=1/1,2,3,16;
 1/10=4,18=10,22=1,26=3,39=5,42=100,44=3/23(2);
 2/29=1/2;
 99/5=20/99;
 2/29=1/2;
 3/5=1,6=6,7=101,11=2,25=1,30=1,71=2,74=-5,116=2,140=1/1,2,3;
 4/5=5,16=3,69=1/1;
 5/5=2,7=1024,38=5/2;
 8/6=4,10=90,11=11/1;
 11/6=1,8=1,9=11,15=111,16=1/1,2,10;
 10/6=1,13=1/2;
 7/10=1,18=20,25=1/1,2,3,16;
 1/18=10,22=1,26=3,39=5,42=100,44=3/23(-8);
 2/29=1/2;
 6/7=2,8=2,9=2,10=2,19=2,28=1/1;
 99/5=20,9=1/99;
 ---------------
 something title
 ---------------
 Symbolic Z-matrix:
 Charge =  0 Multiplicity = 1
 N                    -1.64834  -0.56017  -0.03571 
 B                    -0.9873    0.69566  -0.08602 
 N                     1.64828  -0.56021   0.03588 
 B                     0.98758   0.69549   0.08598 
 H                     2.51772  -0.69265  -0.4533 
 H                    -1.55049   1.69496   0.24089 
 H                    -0.15675   0.85067  -0.99641 
 H                    -1.2598   -1.4093   -0.41443 
 H                    -2.51785  -0.69232   0.45351 
 H                     1.25904  -1.40946   0.4135 
 H                     0.15627   0.85025   0.99582 
 H                     1.5509    1.69479  -0.24057 
 
 IRC-IRC-IRC-IRC-IRC-IRC-IRC-IRC-IRC-IRC-IRC-IRC-IRC-IRC-IRC-IRC-IRC-IRC
 ------------------------------------------------------------------------
 INPUT DATA FOR L123
 ------------------------------------------------------------------------
 GENERAL PARAMETERS:
 Rxn path following direction = Forward
 Maximum points per path      = 100
 Step size                    =   0.050 bohr
 Integration scheme           = HPC                                 
    Redo corrector integration= Yes                                 
    DWI Weight Power          =  2
    DWI will use Hessian update vectors when possible.
    Max correction cycles     =  20
 Initial Hessian              = CalcFC
 Hessian evaluation           = All updating
 Hessian updating method      = Bofill                              
 ------------------------------------------------------------------------
 IRC-IRC-IRC-IRC-IRC-IRC-IRC-IRC-IRC-IRC-IRC-IRC-IRC-IRC-IRC-IRC-IRC-IRC
                          Input orientation:                          
 ---------------------------------------------------------------------
 Center     Atomic      Atomic             Coordinates (Angstroms)
 Number     Number       Type             X           Y           Z
 ---------------------------------------------------------------------
      1          7           0       -1.648340   -0.560170   -0.035710
      2          5           0       -0.987300    0.695660   -0.086020
      3          7           0        1.648280   -0.560210    0.035880
      4          5           0        0.987580    0.695490    0.085980
      5          1           0        2.517720   -0.692650   -0.453300
      6          1           0       -1.550490    1.694960    0.240890
      7          1           0       -0.156750    0.850670   -0.996410
      8          1           0       -1.259800   -1.409300   -0.414430
      9          1           0       -2.517850   -0.692320    0.453510
     10          1           0        1.259040   -1.409460    0.413500
     11          1           0        0.156270    0.850250    0.995820
     12          1           0        1.550900    1.694790   -0.240570
 ---------------------------------------------------------------------
                    Distance matrix (angstroms):
                    1          2          3          4          5
     1  N    0.000000
     2  B    1.420075   0.000000
     3  N    3.297397   2.922046   0.000000
     4  B    2.922253   1.982356   1.419795   0.000000
     5  H    4.189032   3.787805   1.006361   2.135201   0.000000
     6  H    2.274136   1.192750   3.919177   2.732167   4.767905
     7  H    2.266772   1.242035   2.512835   1.582763   3.135218
     8  H    1.007677   2.147782   3.062787   3.119498   3.845095
     9  H    1.006403   2.135454   4.189094   3.788025   5.116568
    10  H    3.062016   3.118829   1.007636   2.147504   1.688027
    11  H    2.511963   1.581780   2.266490   1.242109   3.171267
    12  H    3.919432   2.732143   2.273968   1.192713   2.584543
                    6          7          8          9         10
     6  H    0.000000
     7  H    2.046032   0.000000
     8  H    3.185965   2.581256   0.000000
     9  H    2.584589   3.171416   1.688215   0.000000
    10  H    4.190546   3.016703   2.651419   3.844579   0.000000
    11  H    2.048532   2.016671   3.016559   3.134412   2.580986
    12  H    3.138538   2.049366   4.191138   4.768099   3.185806
                   11         12
    11  H    0.000000
    12  H    2.046192   0.000000
 Symmetry turned off by external request.
 Stoichiometry    B2H8N2
 Framework group  C1[X(B2H8N2)]
 Deg. of freedom    30
 Full point group                 C1      NOp   1
 Rotational constants (GHZ):          14.5634912           4.1592905           3.3666025
 Standard basis: 6-31G(d,p) (6D, 7F)
   100 basis functions,   168 primitive gaussians,   100 cartesian basis functions
    16 alpha electrons       16 beta electrons
       nuclear repulsion energy       110.9003831856 Hartrees.
 NAtoms=   12 NActive=   12 NUniq=   12 SFac= 1.00D+00 NAtFMM=   60 NAOKFM=F Big=F
 Integral buffers will be    131072 words long.
 Raffenetti 2 integral format.
 Two-electron integral symmetry is turned off.
 One-electron integrals computed using PRISM.
 NBasis=   100 RedAO= T EigKep=  5.61D-03  NBF=   100
 NBsUse=   100 1.00D-06 EigRej= -1.00D+00 NBFU=   100
 ExpMin= 1.27D-01 ExpMax= 4.17D+03 ExpMxC= 6.27D+02 IAcc=3 IRadAn=         5 AccDes= 0.00D+00
 Harris functional with IExCor=  402 and IRadAn=       5 diagonalized for initial guess.
 HarFok:  IExCor=  402 AccDes= 0.00D+00 IRadAn=         5 IDoV= 1 UseB2=F ITyADJ=14
 ICtDFT=  3500011 ScaDFX=  1.000000  1.000000  1.000000  1.000000
 FoFCou: FMM=F IPFlag=           0 FMFlag=      100000 FMFlg1=           0
         NFxFlg=           0 DoJE=T BraDBF=F KetDBF=T FulRan=T
         wScrn=  0.000000 ICntrl=       500 IOpCl=  0 I1Cent=   200000004 NGrid=           0
         NMat0=    1 NMatS0=      1 NMatT0=    0 NMatD0=    1 NMtDS0=    0 NMtDT0=    0
 Symmetry not used in FoFCou.
 Initial guess <Sx>= 0.0000 <Sy>= 0.0000 <Sz>= 0.0000 <S**2>= 0.0000 S= 0.0000
 Keep R1 and R2 ints in memory in canonical form, NReq=29209630.
 Requested convergence on RMS density matrix=1.00D-08 within1024 cycles.
 Requested convergence on MAX density matrix=1.00D-06.
 Requested convergence on             energy=1.00D-06.
 No special actions if energy rises.
 Integral accuracy reduced to 1.0D-05 until final iterations.
 Initial convergence to 1.0D-05 achieved.  Increase integral accuracy.
 SCF Done:  E(UB3LYP) =  -164.078245640     A.U. after   12 cycles
            NFock= 12  Conv=0.18D-08     -V/T= 2.0099
 <Sx>= 0.0000 <Sy>= 0.0000 <Sz>= 0.0000 <S**2>=-0.0000 S=-0.0000
 <L.S>= 0.000000000000E+00
 Annihilation of the first spin contaminant:
 S**2 before annihilation    -0.0000,   after     0.0000
 DoSCS=F DFT=T ScalE2(SS,OS)=  1.000000  1.000000
 Range of M.O.s used for correlation:     1   100
 NBasis=   100 NAE=    16 NBE=    16 NFC=     0 NFV=     0
 NROrb=    100 NOA=    16 NOB=    16 NVA=    84 NVB=    84
 Symmetrizing basis deriv contribution to polar:
 IMax=3 JMax=2 DiffMx= 0.00D+00
 G2DrvN: will do    13 centers at a time, making    1 passes.
 Calling FoFCou, ICntrl=  3107 FMM=F I1Cent=   0 AccDes= 0.00D+00.
 End of G2Drv F.D. properties file   721 does not exist.
 End of G2Drv F.D. properties file   722 does not exist.
 End of G2Drv F.D. properties file   788 does not exist.
          IDoAtm=111111111111
          Differentiating once with respect to nuclear coordinates.
 Keep R1 and R2 ints in memory in canonical form, NReq=29207575.
          There are    39 degrees of freedom in the 1st order CPHF.  IDoFFX=6 NUNeed=     0.
     33 vectors produced by pass  0 Test12= 6.89D-15 2.56D-09 XBig12= 1.44D-01 8.41D-02.
 AX will form    33 AO Fock derivatives at one time.
     33 vectors produced by pass  1 Test12= 6.89D-15 2.56D-09 XBig12= 7.21D-03 1.65D-02.
     33 vectors produced by pass  2 Test12= 6.89D-15 2.56D-09 XBig12= 5.57D-05 1.14D-03.
     33 vectors produced by pass  3 Test12= 6.89D-15 2.56D-09 XBig12= 9.01D-08 3.51D-05.
     33 vectors produced by pass  4 Test12= 6.89D-15 2.56D-09 XBig12= 6.64D-11 1.11D-06.
     14 vectors produced by pass  5 Test12= 6.89D-15 2.56D-09 XBig12= 3.53D-14 2.21D-08.
 InvSVY:  IOpt=1 It=  1 EMax= 1.11D-15
 Solved reduced A of dimension   179 with    33 vectors.
 End of Minotr F.D. properties file   721 does not exist.
 End of Minotr F.D. properties file   722 does not exist.
 End of Minotr F.D. properties file   788 does not exist.

 **********************************************************************

            Population analysis using the SCF density.

 **********************************************************************

 Alpha  occ. eigenvalues --  -14.31145 -14.31136  -6.74662  -6.74652  -0.85060
 Alpha  occ. eigenvalues --   -0.84233  -0.58752  -0.49845  -0.49359  -0.47967
 Alpha  occ. eigenvalues --   -0.43074  -0.36957  -0.34821  -0.32974  -0.27041
 Alpha  occ. eigenvalues --   -0.23217
 Alpha virt. eigenvalues --    0.02729   0.06457   0.11190   0.12713   0.15111
 Alpha virt. eigenvalues --    0.15595   0.17432   0.21611   0.22607   0.23828
 Alpha virt. eigenvalues --    0.28384   0.34079   0.42200   0.45729   0.47172
 Alpha virt. eigenvalues --    0.48037   0.54056   0.57248   0.66833   0.69333
 Alpha virt. eigenvalues --    0.73727   0.73840   0.78250   0.80452   0.82614
 Alpha virt. eigenvalues --    0.85294   0.87659   0.88994   0.91045   0.92436
 Alpha virt. eigenvalues --    0.94479   0.95716   1.11330   1.16755   1.17748
 Alpha virt. eigenvalues --    1.19632   1.25116   1.31857   1.42350   1.46959
 Alpha virt. eigenvalues --    1.48411   1.52412   1.53186   1.66557   1.68729
 Alpha virt. eigenvalues --    1.74816   1.80055   1.83491   2.02261   2.07534
 Alpha virt. eigenvalues --    2.07959   2.08888   2.15677   2.18237   2.25013
 Alpha virt. eigenvalues --    2.25957   2.33892   2.37565   2.43020   2.46505
 Alpha virt. eigenvalues --    2.51495   2.54742   2.59168   2.60156   2.63478
 Alpha virt. eigenvalues --    2.63894   2.65761   2.68406   2.75170   2.76902
 Alpha virt. eigenvalues --    2.95377   2.96235   3.04470   3.08278   3.21652
 Alpha virt. eigenvalues --    3.23603   3.29813   3.32452   3.54682   3.61521
 Alpha virt. eigenvalues --    3.62844   3.75875   4.19808   4.26254
  Beta  occ. eigenvalues --  -14.31145 -14.31136  -6.74662  -6.74652  -0.85060
  Beta  occ. eigenvalues --   -0.84233  -0.58752  -0.49845  -0.49359  -0.47967
  Beta  occ. eigenvalues --   -0.43074  -0.36957  -0.34821  -0.32974  -0.27041
  Beta  occ. eigenvalues --   -0.23217
  Beta virt. eigenvalues --    0.02729   0.06457   0.11190   0.12713   0.15111
  Beta virt. eigenvalues --    0.15595   0.17432   0.21611   0.22607   0.23828
  Beta virt. eigenvalues --    0.28384   0.34079   0.42200   0.45729   0.47172
  Beta virt. eigenvalues --    0.48037   0.54056   0.57248   0.66833   0.69333
  Beta virt. eigenvalues --    0.73727   0.73840   0.78250   0.80452   0.82614
  Beta virt. eigenvalues --    0.85294   0.87659   0.88994   0.91045   0.92436
  Beta virt. eigenvalues --    0.94479   0.95716   1.11330   1.16755   1.17748
  Beta virt. eigenvalues --    1.19632   1.25116   1.31857   1.42350   1.46959
  Beta virt. eigenvalues --    1.48411   1.52412   1.53186   1.66557   1.68729
  Beta virt. eigenvalues --    1.74816   1.80055   1.83491   2.02261   2.07534
  Beta virt. eigenvalues --    2.07959   2.08888   2.15677   2.18237   2.25013
  Beta virt. eigenvalues --    2.25957   2.33892   2.37565   2.43020   2.46505
  Beta virt. eigenvalues --    2.51495   2.54742   2.59168   2.60156   2.63478
  Beta virt. eigenvalues --    2.63894   2.65761   2.68406   2.75170   2.76902
  Beta virt. eigenvalues --    2.95377   2.96235   3.04470   3.08278   3.21652
  Beta virt. eigenvalues --    3.23603   3.29813   3.32452   3.54682   3.61521
  Beta virt. eigenvalues --    3.62844   3.75875   4.19808   4.26254
          Condensed to atoms (all electrons):
               1          2          3          4          5          6
     1  N    6.495159   0.470603  -0.005625  -0.011003  -0.000029  -0.023645
     2  B    0.470603   3.532959  -0.011007   0.099864   0.001106   0.402362
     3  N   -0.005625  -0.011007   6.494734   0.470733   0.363957   0.001164
     4  B   -0.011003   0.099864   0.470733   3.533071  -0.033536  -0.018980
     5  H   -0.000029   0.001106   0.363957  -0.033536   0.449376  -0.000024
     6  H   -0.023645   0.402362   0.001164  -0.018980  -0.000024   0.730825
     7  H   -0.019603   0.321793  -0.029054   0.073600  -0.000525  -0.019200
     8  H    0.354779  -0.036887   0.004290  -0.003242  -0.000041   0.003743
     9  H    0.363954  -0.033531  -0.000029   0.001106  -0.000000  -0.003263
    10  H    0.004307  -0.003239   0.354780  -0.036894  -0.031043   0.000039
    11  H   -0.029100   0.073713  -0.019592   0.321658   0.002712  -0.005726
    12  H    0.001163  -0.018943  -0.023651   0.402359  -0.003265   0.000503
               7          8          9         10         11         12
     1  N   -0.019603   0.354779   0.363954   0.004307  -0.029100   0.001163
     2  B    0.321793  -0.036887  -0.033531  -0.003239   0.073713  -0.018943
     3  N   -0.029054   0.004290  -0.000029   0.354780  -0.019592  -0.023651
     4  B    0.073600  -0.003242   0.001106  -0.036894   0.321658   0.402359
     5  H   -0.000525  -0.000041  -0.000000  -0.031043   0.002712  -0.003265
     6  H   -0.019200   0.003743  -0.003263   0.000039  -0.005726   0.000503
     7  H    0.779890  -0.004670   0.002710   0.000796  -0.073079  -0.005717
     8  H   -0.004670   0.468015  -0.031038   0.001312   0.000798   0.000039
     9  H    0.002710  -0.031038   0.449394  -0.000041  -0.000524  -0.000024
    10  H    0.000796   0.001312  -0.000041   0.467954  -0.004676   0.003745
    11  H   -0.073079   0.000798  -0.000524  -0.004676   0.779824  -0.019209
    12  H   -0.005717   0.000039  -0.000024   0.003745  -0.019209   0.730728
          Atomic-Atomic Spin Densities.
               1          2          3          4          5          6
     1  N    0.000000  -0.000000  -0.000000   0.000000   0.000000  -0.000000
     2  B   -0.000000  -0.000000   0.000000   0.000000   0.000000  -0.000000
     3  N   -0.000000   0.000000   0.000000  -0.000000   0.000000  -0.000000
     4  B    0.000000   0.000000  -0.000000  -0.000000  -0.000000  -0.000000
     5  H    0.000000   0.000000   0.000000  -0.000000  -0.000000   0.000000
     6  H   -0.000000  -0.000000  -0.000000  -0.000000   0.000000   0.000000
     7  H   -0.000000   0.000000   0.000000  -0.000000   0.000000   0.000000
     8  H   -0.000000  -0.000000   0.000000  -0.000000   0.000000  -0.000000
     9  H   -0.000000   0.000000   0.000000  -0.000000   0.000000   0.000000
    10  H    0.000000  -0.000000  -0.000000   0.000000   0.000000  -0.000000
    11  H   -0.000000   0.000000  -0.000000  -0.000000   0.000000   0.000000
    12  H    0.000000   0.000000  -0.000000  -0.000000  -0.000000   0.000000
               7          8          9         10         11         12
     1  N   -0.000000  -0.000000  -0.000000   0.000000  -0.000000   0.000000
     2  B    0.000000  -0.000000   0.000000  -0.000000   0.000000   0.000000
     3  N    0.000000   0.000000   0.000000  -0.000000  -0.000000  -0.000000
     4  B   -0.000000  -0.000000  -0.000000   0.000000  -0.000000  -0.000000
     5  H    0.000000   0.000000   0.000000   0.000000   0.000000  -0.000000
     6  H    0.000000  -0.000000   0.000000  -0.000000   0.000000   0.000000
     7  H   -0.000000   0.000000  -0.000000  -0.000000   0.000000  -0.000000
     8  H    0.000000   0.000000   0.000000   0.000000   0.000000   0.000000
     9  H   -0.000000   0.000000   0.000000  -0.000000   0.000000  -0.000000
    10  H   -0.000000   0.000000  -0.000000   0.000000   0.000000   0.000000
    11  H    0.000000   0.000000   0.000000   0.000000   0.000000  -0.000000
    12  H   -0.000000   0.000000  -0.000000   0.000000  -0.000000   0.000000
 Mulliken charges and spin densities:
               1          2
     1  N   -0.600960   0.000000
     2  B    0.201208  -0.000000
     3  N   -0.600702   0.000000
     4  B    0.201263  -0.000000
     5  H    0.251311  -0.000000
     6  H   -0.067798   0.000000
     7  H   -0.026941  -0.000000
     8  H    0.242901  -0.000000
     9  H    0.251285   0.000000
    10  H    0.242960  -0.000000
    11  H   -0.026800   0.000000
    12  H   -0.067728   0.000000
 Sum of Mulliken charges =  -0.00000   0.00000
 Mulliken charges and spin densities with hydrogens summed into heavy atoms:
               1          2
     1  N   -0.106773   0.000000
     2  B    0.106469  -0.000000
     3  N   -0.106431   0.000000
     4  B    0.106735  -0.000000
 APT charges:
               1
     1  N   -1.131531
     2  B   -0.344887
     3  N   -1.131031
     4  B   -0.344527
     5  H    0.708210
     6  H    0.261733
     7  H    0.118028
     8  H    0.388001
     9  H    0.708183
    10  H    0.387884
    11  H    0.118099
    12  H    0.261838
 Sum of APT charges =  -0.00000
 APT charges with hydrogens summed into heavy atoms:
               1
     1  N   -0.035347
     2  B    0.034874
     3  N   -0.034937
     4  B    0.035410
 Electronic spatial extent (au):  <R**2>=            389.3651
 Charge=             -0.0000 electrons
 Dipole moment (field-independent basis, Debye):
    X=              0.0023    Y=             -2.7359    Z=             -0.0008  Tot=              2.7359
 Quadrupole moment (field-independent basis, Debye-Ang):
   XX=            -24.0393   YY=            -25.8721   ZZ=            -28.0713
   XY=             -0.0000   XZ=             -2.7332   YZ=              0.0033
 Traceless Quadrupole moment (field-independent basis, Debye-Ang):
   XX=              1.9549   YY=              0.1221   ZZ=             -2.0771
   XY=             -0.0000   XZ=             -2.7332   YZ=              0.0033
 Octapole moment (field-independent basis, Debye-Ang**2):
  XXX=              0.0051  YYY=            -21.6551  ZZZ=              0.0007  XYY=              0.0045
  XXY=            -13.7533  XXZ=             -0.0020  XZZ=             -0.0011  YZZ=             -3.9070
  YYZ=             -0.0031  XYZ=              0.8601
 Hexadecapole moment (field-independent basis, Debye-Ang**3):
 XXXX=           -294.6128 YYYY=           -135.8140 ZZZZ=            -43.8414 XXXY=             -0.0018
 XXXZ=            -27.9704 YYYX=              0.0007 YYYZ=              0.0067 ZZZX=             -2.7062
 ZZZY=              0.0047 XXYY=            -76.9320 XXZZ=            -66.2394 YYZZ=            -30.3088
 XXYZ=              0.0070 YYXZ=              1.2605 ZZXY=              0.0028
 N-N= 1.109003831856D+02 E-N=-6.021655915080D+02  KE= 1.624650586669D+02
  Exact polarizability:   0.000   0.000   0.000   0.000   0.000   0.000
 Approx polarizability:  72.739  -0.003  59.577  -0.579  -0.001  43.218
                          Isotropic Fermi Contact Couplings
        Atom                 a.u.       MegaHertz       Gauss      10(-4) cm-1
     1  N(14)              0.00000       0.00000       0.00000       0.00000
     2  B(11)             -0.00000      -0.00000      -0.00000      -0.00000
     3  N(14)             -0.00000      -0.00000      -0.00000      -0.00000
     4  B(11)             -0.00000      -0.00000      -0.00000      -0.00000
     5  H(1)              -0.00000      -0.00000      -0.00000      -0.00000
     6  H(1)               0.00000       0.00000       0.00000       0.00000
     7  H(1)               0.00000       0.00000       0.00000       0.00000
     8  H(1)               0.00000       0.00000       0.00000       0.00000
     9  H(1)               0.00000       0.00000       0.00000       0.00000
    10  H(1)              -0.00000      -0.00000      -0.00000      -0.00000
    11  H(1)               0.00000       0.00000       0.00000       0.00000
    12  H(1)               0.00000       0.00000       0.00000       0.00000
 --------------------------------------------------------
       Center         ----  Spin Dipole Couplings  ----
                      3XX-RR        3YY-RR        3ZZ-RR
 --------------------------------------------------------
     1   Atom        0.000000      0.000000      0.000000
     2   Atom        0.000000      0.000000      0.000000
     3   Atom        0.000000      0.000000      0.000000
     4   Atom        0.000000      0.000000      0.000000
     5   Atom        0.000000      0.000000      0.000000
     6   Atom        0.000000      0.000000      0.000000
     7   Atom        0.000000      0.000000      0.000000
     8   Atom        0.000000      0.000000      0.000000
     9   Atom        0.000000      0.000000      0.000000
    10   Atom        0.000000      0.000000      0.000000
    11   Atom        0.000000      0.000000      0.000000
    12   Atom        0.000000      0.000000      0.000000
 --------------------------------------------------------
                        XY            XZ            YZ
 --------------------------------------------------------
     1   Atom        0.000000      0.000000      0.000000
     2   Atom        0.000000      0.000000      0.000000
     3   Atom        0.000000      0.000000      0.000000
     4   Atom        0.000000      0.000000      0.000000
     5   Atom        0.000000      0.000000      0.000000
     6   Atom        0.000000      0.000000      0.000000
     7   Atom        0.000000      0.000000      0.000000
     8   Atom        0.000000      0.000000      0.000000
     9   Atom        0.000000      0.000000      0.000000
    10   Atom        0.000000      0.000000      0.000000
    11   Atom        0.000000      0.000000      0.000000
    12   Atom        0.000000      0.000000      0.000000
 --------------------------------------------------------


 ---------------------------------------------------------------------------------
              Anisotropic Spin Dipole Couplings in Principal Axis System
 ---------------------------------------------------------------------------------

       Atom             a.u.   MegaHertz   Gauss  10(-4) cm-1        Axes

              Baa     0.0000     0.000     0.000     0.000  1.0000  0.0000  0.0000
     1 N(14)  Bbb     0.0000     0.000     0.000     0.000 -0.0000  1.0000  0.0000
              Bcc     0.0000     0.000     0.000     0.000  0.0000  0.0000  1.0000
 
              Baa     0.0000     0.000     0.000     0.000  1.0000  0.0000  0.0000
     2 B(11)  Bbb     0.0000     0.000     0.000     0.000 -0.0000  1.0000  0.0000
              Bcc     0.0000     0.000     0.000     0.000  0.0000  0.0000  1.0000
 
              Baa     0.0000     0.000     0.000     0.000  1.0000  0.0000  0.0000
     3 N(14)  Bbb     0.0000     0.000     0.000     0.000 -0.0000  1.0000  0.0000
              Bcc     0.0000     0.000     0.000     0.000  0.0000  0.0000  1.0000
 
              Baa     0.0000     0.000     0.000     0.000  1.0000  0.0000  0.0000
     4 B(11)  Bbb     0.0000     0.000     0.000     0.000 -0.0000  1.0000  0.0000
              Bcc     0.0000     0.000     0.000     0.000  0.0000  0.0000  1.0000
 
              Baa     0.0000     0.000     0.000     0.000  1.0000  0.0000  0.0000
     5 H(1)   Bbb     0.0000     0.000     0.000     0.000 -0.0000  1.0000  0.0000
              Bcc     0.0000     0.000     0.000     0.000  0.0000  0.0000  1.0000
 
              Baa     0.0000     0.000     0.000     0.000  1.0000  0.0000  0.0000
     6 H(1)   Bbb     0.0000     0.000     0.000     0.000 -0.0000  1.0000  0.0000
              Bcc     0.0000     0.000     0.000     0.000  0.0000  0.0000  1.0000
 
              Baa     0.0000     0.000     0.000     0.000  1.0000  0.0000  0.0000
     7 H(1)   Bbb     0.0000     0.000     0.000     0.000 -0.0000  1.0000  0.0000
              Bcc     0.0000     0.000     0.000     0.000  0.0000  0.0000  1.0000
 
              Baa     0.0000     0.000     0.000     0.000  1.0000  0.0000  0.0000
     8 H(1)   Bbb     0.0000     0.000     0.000     0.000 -0.0000  1.0000  0.0000
              Bcc     0.0000     0.000     0.000     0.000  0.0000  0.0000  1.0000
 
              Baa     0.0000     0.000     0.000     0.000  1.0000  0.0000  0.0000
     9 H(1)   Bbb     0.0000     0.000     0.000     0.000 -0.0000  1.0000  0.0000
              Bcc     0.0000     0.000     0.000     0.000  0.0000  0.0000  1.0000
 
              Baa     0.0000     0.000     0.000     0.000  1.0000  0.0000  0.0000
    10 H(1)   Bbb     0.0000     0.000     0.000     0.000 -0.0000  1.0000  0.0000
              Bcc     0.0000     0.000     0.000     0.000  0.0000  0.0000  1.0000
 
              Baa     0.0000     0.000     0.000     0.000  1.0000  0.0000  0.0000
    11 H(1)   Bbb     0.0000     0.000     0.000     0.000 -0.0000  1.0000  0.0000
              Bcc     0.0000     0.000     0.000     0.000  0.0000  0.0000  1.0000
 
              Baa     0.0000     0.000     0.000     0.000  1.0000  0.0000  0.0000
    12 H(1)   Bbb     0.0000     0.000     0.000     0.000 -0.0000  1.0000  0.0000
              Bcc     0.0000     0.000     0.000     0.000  0.0000  0.0000  1.0000
 

 ---------------------------------------------------------------------------------

 Calling FoFJK, ICntrl=    100147 FMM=F ISym2X=0 I1Cent= 0 IOpClX= 1 NMat=1 NMatS=1 NMatT=0.
 -------------------------------------------------------------------
 Center     Atomic                   Forces (Hartrees/Bohr)
 Number     Number              X              Y              Z
 -------------------------------------------------------------------
      1        7           0.000010303    0.000001735   -0.000005468
      2        5          -0.000017966   -0.000001136    0.000018392
      3        7           0.000042769   -0.000093725   -0.000013531
      4        5          -0.000071649    0.000103079   -0.000009057
      5        1           0.000047224    0.000010337   -0.000023855
      6        1           0.000001467   -0.000002178   -0.000005045
      7        1           0.000025171   -0.000005093    0.000003198
      8        1          -0.000001110    0.000001391    0.000002088
      9        1          -0.000003280    0.000001280   -0.000000118
     10        1          -0.000031613   -0.000028947    0.000025080
     11        1           0.000001401    0.000007685    0.000004710
     12        1          -0.000002717    0.000005571    0.000003608
 -------------------------------------------------------------------
 Cartesian Forces:  Max     0.000103079 RMS     0.000030581
 IRC-IRC-IRC-IRC-IRC-IRC-IRC-IRC-IRC-IRC-IRC-IRC-IRC-IRC-IRC-IRC-IRC-IRC
          ******** Start new reaction path calculation ********
 Supplied step size of   0.0500 bohr.
    Integration on MW PES will use step size of   0.0836 sqrt(amu)*bohr.
 Point Number:   0          Path Number:   1
 Calculating another point on the path.
 IRC-IRC-IRC-IRC-IRC-IRC-IRC-IRC-IRC-IRC-IRC-IRC-IRC-IRC-IRC-IRC-IRC-IRC
                          Input orientation:                          
 ---------------------------------------------------------------------
 Center     Atomic      Atomic             Coordinates (Angstroms)
 Number     Number       Type             X           Y           Z
 ---------------------------------------------------------------------
      1          7           0       -1.647125   -0.568675   -0.036106
      2          5           0       -0.981029    0.685877   -0.081572
      3          7           0        1.647022   -0.568715    0.036246
      4          5           0        0.981261    0.685708    0.081497
      5          1           0        2.521342   -0.697050   -0.445233
      6          1           0       -1.546457    1.687759    0.233778
      7          1           0       -0.148771    0.839809   -0.994233
      8          1           0       -1.257474   -1.420137   -0.408336
      9          1           0       -2.521523   -0.696721    0.445396
     10          1           0        1.256678   -1.420300    0.407355
     11          1           0        0.148281    0.839402    0.993643
     12          1           0        1.546820    1.687583   -0.233503
 ---------------------------------------------------------------------
                    Distance matrix (angstroms):
                    1          2          3          4          5
     1  N    0.000000
     2  B    1.421145   0.000000
     3  N    3.294941   2.914538   0.000000
     4  B    2.914742   1.969054   1.420867   0.000000
     5  H    4.190463   3.783034   1.006344   2.135723   0.000000
     6  H    2.274746   1.192863   3.915227   2.723354   4.763965
     7  H    2.268678   1.244709   2.504136   1.567774   3.129352
     8  H    1.007656   2.149068   3.059194   3.112307   3.847553
     9  H    1.006386   2.135977   4.190532   3.783257   5.120909
    10  H    3.058430   3.111650   1.007614   2.148792   1.688008
    11  H    2.503307   1.566843   2.268398   1.244784   3.172140
    12  H    3.915476   2.723328   2.274574   1.192826   2.584763
                    6          7          8          9         10
     6  H    0.000000
     7  H    2.044641   0.000000
     8  H    3.186666   2.584541   0.000000
     9  H    2.584818   3.172288   1.688197   0.000000
    10  H    4.189001   3.007961   2.643163   3.847054   0.000000
    11  H    2.041873   2.009948   3.007858   3.128595   2.584286
    12  H    3.128373   2.042659   4.189576   4.764161   3.186505
                   11         12
    11  H    0.000000
    12  H    2.044801   0.000000
 Symmetry turned off by external request.
 Stoichiometry    B2H8N2
 Framework group  C1[X(B2H8N2)]
 Deg. of freedom    30
 Full point group                 C1      NOp   1
 Rotational constants (GHZ):          14.6013583           4.1746851           3.3762716
 Standard basis: 6-31G(d,p) (6D, 7F)
   100 basis functions,   168 primitive gaussians,   100 cartesian basis functions
    16 alpha electrons       16 beta electrons
       nuclear repulsion energy       111.0126111554 Hartrees.
 NAtoms=   12 NActive=   12 NUniq=   12 SFac= 1.00D+00 NAtFMM=   60 NAOKFM=F Big=F
 Integral buffers will be    131072 words long.
 Raffenetti 2 integral format.
 Two-electron integral symmetry is turned off.
 One-electron integrals computed using PRISM.
 NBasis=   100 RedAO= T EigKep=  5.48D-03  NBF=   100
 NBsUse=   100 1.00D-06 EigRej= -1.00D+00 NBFU=   100
 Initial guess from the checkpoint file:  "/scratch/1311850/Gau-12481.chk"
 B after Tr=    -0.000040   -0.016741   -0.000031
         Rot=    1.000000   -0.000000    0.000256    0.000000 Ang=  -0.03 deg.
 Initial guess <Sx>= 0.0000 <Sy>= 0.0000 <Sz>= 0.0000 <S**2>=-0.0000 S=-0.0000
 ExpMin= 1.27D-01 ExpMax= 4.17D+03 ExpMxC= 6.27D+02 IAcc=2 IRadAn=         4 AccDes= 0.00D+00
 Harris functional with IExCor=  402 and IRadAn=       4 diagonalized for initial guess.
 HarFok:  IExCor=  402 AccDes= 0.00D+00 IRadAn=         4 IDoV= 1 UseB2=F ITyADJ=14
 ICtDFT=  3500011 ScaDFX=  1.000000  1.000000  1.000000  1.000000
 FoFCou: FMM=F IPFlag=           0 FMFlag=      100000 FMFlg1=           0
         NFxFlg=           0 DoJE=T BraDBF=F KetDBF=T FulRan=T
         wScrn=  0.000000 ICntrl=       500 IOpCl=  0 I1Cent=   200000004 NGrid=           0
         NMat0=    1 NMatS0=      1 NMatT0=    0 NMatD0=    1 NMtDS0=    0 NMtDT0=    0
 Symmetry not used in FoFCou.
 Keep R1 and R2 ints in memory in canonical form, NReq=29209630.
 Requested convergence on RMS density matrix=1.00D-08 within1024 cycles.
 Requested convergence on MAX density matrix=1.00D-06.
 Requested convergence on             energy=1.00D-06.
 No special actions if energy rises.
 Integral accuracy reduced to 1.0D-05 until final iterations.
 Initial convergence to 1.0D-05 achieved.  Increase integral accuracy.
 SCF Done:  E(UB3LYP) =  -164.078255133     A.U. after    9 cycles
            NFock=  9  Conv=0.86D-08     -V/T= 2.0099
 <Sx>= 0.0000 <Sy>= 0.0000 <Sz>= 0.0000 <S**2>=-0.0000 S=-0.0000
 <L.S>= 0.000000000000E+00
 Annihilation of the first spin contaminant:
 S**2 before annihilation    -0.0000,   after    -0.0000
 DoSCS=F DFT=T ScalE2(SS,OS)=  1.000000  1.000000
 Range of M.O.s used for correlation:     1   100
 NBasis=   100 NAE=    16 NBE=    16 NFC=     0 NFV=     0
 NROrb=    100 NOA=    16 NOB=    16 NVA=    84 NVB=    84
 Symmetrizing basis deriv contribution to polar:
 IMax=3 JMax=2 DiffMx= 0.00D+00
 Calling FoFJK, ICntrl=      2147 FMM=F ISym2X=0 I1Cent= 0 IOpClX= 1 NMat=1 NMatS=1 NMatT=0.
 -------------------------------------------------------------------
 Center     Atomic                   Forces (Hartrees/Bohr)
 Number     Number              X              Y              Z
 -------------------------------------------------------------------
      1        7           0.000072790    0.000019027   -0.000023041
      2        5           0.000240977   -0.000031952    0.000266040
      3        7          -0.000019739   -0.000076290    0.000004300
      4        5          -0.000330975    0.000072419   -0.000256757
      5        1           0.000024973    0.000036784    0.000040238
      6        1           0.000033936   -0.000015194   -0.000048113
      7        1           0.000058318   -0.000010419   -0.000002817
      8        1          -0.000002853    0.000006570    0.000044238
      9        1           0.000019074    0.000027708   -0.000064352
     10        1          -0.000029744   -0.000023669   -0.000017199
     11        1          -0.000031579    0.000002430    0.000010874
     12        1          -0.000035176   -0.000007413    0.000046590
 -------------------------------------------------------------------
 Cartesian Forces:  Max     0.000330975 RMS     0.000098237
 IRC-IRC-IRC-IRC-IRC-IRC-IRC-IRC-IRC-IRC-IRC-IRC-IRC-IRC-IRC-IRC-IRC-IRC
 Pt  1 Step number   1 out of a maximum of  20
 Modified Bulirsch-Stoer Extrapolation Cycles:
    EPS =    0.000010000000000
      PEZero:  N= 2 I= 1 D=  2.18D-04 Err=  1.37D-02
      PEZero:  N= 3 I= 2 D=  2.18D-04 Err=  4.62D-03
      PEZero:  N= 3 I= 1 D=  4.36D-04 Err=  6.79D-03
      PEZero:  N= 4 I= 3 D=  1.09D-04 Err=  1.94D-04
      PEZero:  N= 4 I= 2 D=  3.27D-04 Err=  4.36D-03
      PEZero:  N= 5 I= 4 D=  1.09D-04 Err=  1.12D-04
      PEZero:  N= 5 I= 3 D=  2.18D-04 Err=  2.62D-05
      PEZero:  N= 5 I= 2 D=  4.36D-04 Err=  2.33D-03
      PEZero:  N= 6 I= 5 D=  5.45D-05 Err=  8.19D-05
      PEZero:  N= 6 I= 4 D=  1.63D-04 Err=  2.82D-06
      PEZero:  N= 6 I= 3 D=  2.72D-04 Err=  1.23D-05
 Maximum DWI energy   std dev =  0.000000034 at pt     1
 Maximum DWI gradient std dev =  0.195716198 at pt     8
 CORRECTOR INTEGRATION CONVERGENCE:
   Recorrection delta-x convergence threshold:    0.010000
   Delta-x Convergence Met
 Point Number:   1          Path Number:   1
   CHANGE IN THE REACTION COORDINATE =    0.08346
   NET REACTION COORDINATE UP TO THIS POINT =    0.08346
  # OF POINTS ALONG THE PATH =   1
  # OF STEPS =   1

 Calculating another point on the path.
 IRC-IRC-IRC-IRC-IRC-IRC-IRC-IRC-IRC-IRC-IRC-IRC-IRC-IRC-IRC-IRC-IRC-IRC
                          Input orientation:                          
 ---------------------------------------------------------------------
 Center     Atomic      Atomic             Coordinates (Angstroms)
 Number     Number       Type             X           Y           Z
 ---------------------------------------------------------------------
      1          7           0       -1.645881   -0.568208   -0.036488
      2          5           0       -0.974965    0.685078   -0.077085
      3          7           0        1.645826   -0.568377    0.036509
      4          5           0        0.975035    0.684978    0.077074
      5          1           0        2.525378   -0.692293   -0.436617
      6          1           0       -1.542607    1.689522    0.226275
      7          1           0       -0.140529    0.837817   -0.991812
      8          1           0       -1.254848   -1.422094   -0.401607
      9          1           0       -2.525499   -0.692008    0.436546
     10          1           0        1.254643   -1.422244    0.401475
     11          1           0        0.140676    0.837830    0.991857
     12          1           0        1.542786    1.689349   -0.226301
 ---------------------------------------------------------------------
                    Distance matrix (angstroms):
                    1          2          3          4          5
     1  N    0.000000
     2  B    1.422146   0.000000
     3  N    3.292515   2.907335   0.000000
     4  B    2.907331   1.956085   1.422148   0.000000
     5  H    4.192243   3.778732   1.006388   2.136427   0.000000
     6  H    2.275314   1.192960   3.911550   2.714754   4.760354
     7  H    2.270602   1.247533   2.495173   1.552534   3.123546
     8  H    1.007641   2.150307   3.055272   3.105039   3.850187
     9  H    1.006388   2.136431   4.192286   3.778763   5.125795
    10  H    3.055197   3.104992   1.007627   2.150303   1.688193
    11  H    2.495240   1.552620   2.270591   1.247536   3.173108
    12  H    3.911546   2.714756   2.275305   1.192954   2.584945
                    6          7          8          9         10
     6  H    0.000000
     7  H    2.043272   0.000000
     8  H    3.187349   2.587904   0.000000
     9  H    2.584952   3.173114   1.688218   0.000000
    10  H    4.187886   2.999272   2.634860   3.850188   0.000000
    11  H    2.035913   2.003502   2.999414   3.123662   2.587935
    12  H    3.118409   2.035845   4.187907   4.760375   3.187341
                   11         12
    11  H    0.000000
    12  H    2.043259   0.000000
 Symmetry turned off by external request.
 Stoichiometry    B2H8N2
 Framework group  C1[X(B2H8N2)]
 Deg. of freedom    30
 Full point group                 C1      NOp   1
 Rotational constants (GHZ):          14.6377979           4.1896836           3.3855728
 Standard basis: 6-31G(d,p) (6D, 7F)
   100 basis functions,   168 primitive gaussians,   100 cartesian basis functions
    16 alpha electrons       16 beta electrons
       nuclear repulsion energy       111.1201840149 Hartrees.
 NAtoms=   12 NActive=   12 NUniq=   12 SFac= 1.00D+00 NAtFMM=   60 NAOKFM=F Big=F
 Integral buffers will be    131072 words long.
 Raffenetti 2 integral format.
 Two-electron integral symmetry is turned off.
 One-electron integrals computed using PRISM.
 NBasis=   100 RedAO= T EigKep=  5.35D-03  NBF=   100
 NBsUse=   100 1.00D-06 EigRej= -1.00D+00 NBFU=   100
 Initial guess from the checkpoint file:  "/scratch/1311850/Gau-12481.chk"
 B after Tr=     0.000037    0.000209    0.000025
         Rot=    1.000000    0.000015    0.000275   -0.000002 Ang=   0.03 deg.
 Initial guess <Sx>= 0.0000 <Sy>= 0.0000 <Sz>= 0.0000 <S**2>=-0.0000 S=-0.0000
 ExpMin= 1.27D-01 ExpMax= 4.17D+03 ExpMxC= 6.27D+02 IAcc=2 IRadAn=         4 AccDes= 0.00D+00
 Harris functional with IExCor=  402 and IRadAn=       4 diagonalized for initial guess.
 HarFok:  IExCor=  402 AccDes= 0.00D+00 IRadAn=         4 IDoV= 1 UseB2=F ITyADJ=14
 ICtDFT=  3500011 ScaDFX=  1.000000  1.000000  1.000000  1.000000
 FoFCou: FMM=F IPFlag=           0 FMFlag=      100000 FMFlg1=           0
         NFxFlg=           0 DoJE=T BraDBF=F KetDBF=T FulRan=T
         wScrn=  0.000000 ICntrl=       500 IOpCl=  0 I1Cent=   200000004 NGrid=           0
         NMat0=    1 NMatS0=      1 NMatT0=    0 NMatD0=    1 NMtDS0=    0 NMtDT0=    0
 Symmetry not used in FoFCou.
 Keep R1 and R2 ints in memory in canonical form, NReq=29209630.
 Requested convergence on RMS density matrix=1.00D-08 within1024 cycles.
 Requested convergence on MAX density matrix=1.00D-06.
 Requested convergence on             energy=1.00D-06.
 No special actions if energy rises.
 Integral accuracy reduced to 1.0D-05 until final iterations.
 Initial convergence to 1.0D-05 achieved.  Increase integral accuracy.
 SCF Done:  E(UB3LYP) =  -164.078279809     A.U. after    9 cycles
            NFock=  9  Conv=0.90D-08     -V/T= 2.0100
 <Sx>= 0.0000 <Sy>= 0.0000 <Sz>= 0.0000 <S**2>=-0.0000 S=-0.0000
 <L.S>= 0.000000000000E+00
 Annihilation of the first spin contaminant:
 S**2 before annihilation    -0.0000,   after    -0.0000
 DoSCS=F DFT=T ScalE2(SS,OS)=  1.000000  1.000000
 Range of M.O.s used for correlation:     1   100
 NBasis=   100 NAE=    16 NBE=    16 NFC=     0 NFV=     0
 NROrb=    100 NOA=    16 NOB=    16 NVA=    84 NVB=    84
 Symmetrizing basis deriv contribution to polar:
 IMax=3 JMax=2 DiffMx= 0.00D+00
 Calling FoFJK, ICntrl=      2147 FMM=F ISym2X=0 I1Cent= 0 IOpClX= 1 NMat=1 NMatS=1 NMatT=0.
 -------------------------------------------------------------------
 Center     Atomic                   Forces (Hartrees/Bohr)
 Number     Number              X              Y              Z
 -------------------------------------------------------------------
      1        7           0.000113858    0.000027008   -0.000029440
      2        5           0.000484844   -0.000056059    0.000481617
      3        7          -0.000105477    0.000032803    0.000021062
      4        5          -0.000486196   -0.000057471   -0.000472747
      5        1          -0.000056830    0.000053154    0.000133840
      6        1           0.000064943   -0.000029760   -0.000084198
      7        1           0.000059277   -0.000008998   -0.000017178
      8        1          -0.000008758    0.000016444    0.000087441
      9        1           0.000057336    0.000052247   -0.000134864
     10        1           0.000002930    0.000007034   -0.000080269
     11        1          -0.000063077   -0.000009344    0.000011508
     12        1          -0.000062849   -0.000027058    0.000083228
 -------------------------------------------------------------------
 Cartesian Forces:  Max     0.000486196 RMS     0.000171198
 IRC-IRC-IRC-IRC-IRC-IRC-IRC-IRC-IRC-IRC-IRC-IRC-IRC-IRC-IRC-IRC-IRC-IRC
 Pt  2 Step number   1 out of a maximum of  20
 Modified Bulirsch-Stoer Extrapolation Cycles:
    EPS =    0.000010000000000
      PEZero:  N= 2 I= 1 D=  4.36D-04 Err=  2.27D-02
      PEZero:  N= 3 I= 2 D=  4.36D-04 Err=  6.60D-03
      PEZero:  N= 3 I= 1 D=  8.71D-04 Err=  1.28D-02
      PEZero:  N= 4 I= 3 D=  2.18D-04 Err=  1.56D-06
      PEZero:  N= 4 I= 2 D=  6.53D-04 Err=  6.60D-03
 Maximum DWI energy   std dev =  0.000000122 at pt    48
 Maximum DWI gradient std dev =  0.174228124 at pt    72
 CORRECTOR INTEGRATION CONVERGENCE:
   Recorrection delta-x convergence threshold:    0.010000
   Delta-x Convergence Met
 Point Number:   2          Path Number:   1
   CHANGE IN THE REACTION COORDINATE =    0.08361
   NET REACTION COORDINATE UP TO THIS POINT =    0.16707
  # OF POINTS ALONG THE PATH =   2
  # OF STEPS =   1

 Calculating another point on the path.
 IRC-IRC-IRC-IRC-IRC-IRC-IRC-IRC-IRC-IRC-IRC-IRC-IRC-IRC-IRC-IRC-IRC-IRC
                          Input orientation:                          
 ---------------------------------------------------------------------
 Center     Atomic      Atomic             Coordinates (Angstroms)
 Number     Number       Type             X           Y           Z
 ---------------------------------------------------------------------
      1          7           0       -1.644605   -0.567772   -0.036831
      2          5           0       -0.968959    0.684279   -0.072549
      3          7           0        1.644549   -0.567942    0.036846
      4          5           0        0.969038    0.684177    0.072545
      5          1           0        2.529422   -0.687416   -0.427304
      6          1           0       -1.538726    1.691095    0.218914
      7          1           0       -0.132966    0.836192   -0.989920
      8          1           0       -1.252438   -1.424156   -0.394679
      9          1           0       -2.529514   -0.687134    0.427272
     10          1           0        1.252221   -1.424299    0.394599
     11          1           0        0.132997    0.836163    0.989859
     12          1           0        1.538913    1.690940   -0.218899
 ---------------------------------------------------------------------
                    Distance matrix (angstroms):
                    1          2          3          4          5
     1  N    0.000000
     2  B    1.423167   0.000000
     3  N    3.289979   2.900078   0.000000
     4  B    2.900081   1.943421   1.423163   0.000000
     5  H    4.193958   3.774397   1.006334   2.136800   0.000000
     6  H    2.275762   1.193005   3.907638   2.706324   4.756547
     7  H    2.272564   1.250413   2.487047   1.538296   3.118690
     8  H    1.007593   2.151657   3.051533   3.098116   3.853091
     9  H    1.006332   2.136803   4.193977   3.774413   5.130607
    10  H    3.051453   3.098059   1.007599   2.151646   1.688124
    11  H    2.486965   1.538209   2.272561   1.250411   3.173719
    12  H    3.907648   2.706328   2.275767   1.193009   2.584786
                    6          7          8          9         10
     6  H    0.000000
     7  H    2.041641   0.000000
     8  H    3.187984   2.591661   0.000000
     9  H    2.584772   3.173704   1.688114   0.000000
    10  H    4.186398   2.990896   2.626076   3.853050   0.000000
    11  H    2.029759   1.997563   2.990890   3.118638   2.591657
    12  H    3.108624   2.029839   4.186450   4.756561   3.187991
                   11         12
    11  H    0.000000
    12  H    2.041651   0.000000
 Symmetry turned off by external request.
 Stoichiometry    B2H8N2
 Framework group  C1[X(B2H8N2)]
 Deg. of freedom    30
 Full point group                 C1      NOp   1
 Rotational constants (GHZ):          14.6755052           4.2046656           3.3948989
 Standard basis: 6-31G(d,p) (6D, 7F)
   100 basis functions,   168 primitive gaussians,   100 cartesian basis functions
    16 alpha electrons       16 beta electrons
       nuclear repulsion energy       111.2308122628 Hartrees.
 NAtoms=   12 NActive=   12 NUniq=   12 SFac= 1.00D+00 NAtFMM=   60 NAOKFM=F Big=F
 Integral buffers will be    131072 words long.
 Raffenetti 2 integral format.
 Two-electron integral symmetry is turned off.
 One-electron integrals computed using PRISM.
 NBasis=   100 RedAO= T EigKep=  5.23D-03  NBF=   100
 NBsUse=   100 1.00D-06 EigRej= -1.00D+00 NBFU=   100
 Initial guess from the checkpoint file:  "/scratch/1311850/Gau-12481.chk"
 B after Tr=    -0.000003    0.000212    0.000001
         Rot=    1.000000    0.000000    0.000279   -0.000000 Ang=   0.03 deg.
 Initial guess <Sx>= 0.0000 <Sy>= 0.0000 <Sz>= 0.0000 <S**2>=-0.0000 S=-0.0000
 ExpMin= 1.27D-01 ExpMax= 4.17D+03 ExpMxC= 6.27D+02 IAcc=2 IRadAn=         4 AccDes= 0.00D+00
 Harris functional with IExCor=  402 and IRadAn=       4 diagonalized for initial guess.
 HarFok:  IExCor=  402 AccDes= 0.00D+00 IRadAn=         4 IDoV= 1 UseB2=F ITyADJ=14
 ICtDFT=  3500011 ScaDFX=  1.000000  1.000000  1.000000  1.000000
 FoFCou: FMM=F IPFlag=           0 FMFlag=      100000 FMFlg1=           0
         NFxFlg=           0 DoJE=T BraDBF=F KetDBF=T FulRan=T
         wScrn=  0.000000 ICntrl=       500 IOpCl=  0 I1Cent=   200000004 NGrid=           0
         NMat0=    1 NMatS0=      1 NMatT0=    0 NMatD0=    1 NMtDS0=    0 NMtDT0=    0
 Symmetry not used in FoFCou.
 Keep R1 and R2 ints in memory in canonical form, NReq=29209630.
 Requested convergence on RMS density matrix=1.00D-08 within1024 cycles.
 Requested convergence on MAX density matrix=1.00D-06.
 Requested convergence on             energy=1.00D-06.
 No special actions if energy rises.
 Integral accuracy reduced to 1.0D-05 until final iterations.
 Initial convergence to 1.0D-05 achieved.  Increase integral accuracy.
 SCF Done:  E(UB3LYP) =  -164.078317330     A.U. after    9 cycles
            NFock=  9  Conv=0.89D-08     -V/T= 2.0100
 <Sx>= 0.0000 <Sy>= 0.0000 <Sz>= 0.0000 <S**2>=-0.0000 S=-0.0000
 <L.S>= 0.000000000000E+00
 Annihilation of the first spin contaminant:
 S**2 before annihilation    -0.0000,   after    -0.0000
 DoSCS=F DFT=T ScalE2(SS,OS)=  1.000000  1.000000
 Range of M.O.s used for correlation:     1   100
 NBasis=   100 NAE=    16 NBE=    16 NFC=     0 NFV=     0
 NROrb=    100 NOA=    16 NOB=    16 NVA=    84 NVB=    84
 Symmetrizing basis deriv contribution to polar:
 IMax=3 JMax=2 DiffMx= 0.00D+00
 Calling FoFJK, ICntrl=      2147 FMM=F ISym2X=0 I1Cent= 0 IOpClX= 1 NMat=1 NMatS=1 NMatT=0.
 -------------------------------------------------------------------
 Center     Atomic                   Forces (Hartrees/Bohr)
 Number     Number              X              Y              Z
 -------------------------------------------------------------------
      1        7           0.000161908    0.000042461   -0.000033933
      2        5           0.000677421   -0.000085878    0.000628890
      3        7          -0.000165038    0.000040166    0.000035114
      4        5          -0.000677371   -0.000084840   -0.000634317
      5        1          -0.000054630    0.000068513    0.000174563
      6        1           0.000073153   -0.000023236   -0.000105224
      7        1           0.000082486   -0.000013305   -0.000007164
      8        1          -0.000002466    0.000010944    0.000111265
      9        1           0.000053275    0.000068585   -0.000173161
     10        1           0.000005263    0.000014796   -0.000113287
     11        1          -0.000079350   -0.000013108    0.000011409
     12        1          -0.000074650   -0.000025099    0.000105846
 -------------------------------------------------------------------
 Cartesian Forces:  Max     0.000677421 RMS     0.000232061
 IRC-IRC-IRC-IRC-IRC-IRC-IRC-IRC-IRC-IRC-IRC-IRC-IRC-IRC-IRC-IRC-IRC-IRC
 Pt  3 Step number   1 out of a maximum of  20
 Modified Bulirsch-Stoer Extrapolation Cycles:
    EPS =    0.000010000000000
      PEZero:  N= 2 I= 1 D=  4.36D-04 Err=  5.13D-06
 Maximum DWI energy   std dev =  0.000000114 at pt    49
 Maximum DWI gradient std dev =  0.129719007 at pt    28
 CORRECTOR INTEGRATION CONVERGENCE:
   Recorrection delta-x convergence threshold:    0.010000
   Delta-x Convergence Met
 Point Number:   3          Path Number:   1
   CHANGE IN THE REACTION COORDINATE =    0.08362
   NET REACTION COORDINATE UP TO THIS POINT =    0.25069
  # OF POINTS ALONG THE PATH =   3
  # OF STEPS =   1

 Calculating another point on the path.
 IRC-IRC-IRC-IRC-IRC-IRC-IRC-IRC-IRC-IRC-IRC-IRC-IRC-IRC-IRC-IRC-IRC-IRC
                          Input orientation:                          
 ---------------------------------------------------------------------
 Center     Atomic      Atomic             Coordinates (Angstroms)
 Number     Number       Type             X           Y           Z
 ---------------------------------------------------------------------
      1          7           0       -1.643308   -0.567347   -0.037142
      2          5           0       -0.963107    0.683485   -0.067995
      3          7           0        1.643250   -0.567520    0.037149
      4          5           0        0.963179    0.683385    0.067992
      5          1           0        2.533643   -0.682394   -0.417401
      6          1           0       -1.534962    1.692585    0.211446
      7          1           0       -0.125500    0.834658   -0.988036
      8          1           0       -1.249988   -1.426296   -0.387378
      9          1           0       -2.533745   -0.682109    0.417354
     10          1           0        1.249825   -1.426429    0.387361
     11          1           0        0.125618    0.834656    0.988059
     12          1           0        1.535140    1.692420   -0.211460
 ---------------------------------------------------------------------
                    Distance matrix (angstroms):
                    1          2          3          4          5
     1  N    0.000000
     2  B    1.424151   0.000000
     3  N    3.287397   2.892951   0.000000
     4  B    2.892949   1.931080   1.424153   0.000000
     5  H    4.195802   3.770275   1.006286   2.137128   0.000000
     6  H    2.276143   1.193058   3.903779   2.698105   4.752844
     7  H    2.274545   1.253361   2.479029   1.524237   3.114180
     8  H    1.007551   2.153017   3.047712   3.091315   3.856185
     9  H    1.006287   2.137127   4.195828   3.770292   5.135683
    10  H    3.047695   3.091303   1.007549   2.153016   1.688022
    11  H    2.479062   1.524279   2.274540   1.253361   3.174168
    12  H    3.903776   2.698106   2.276142   1.193057   2.584407
                    6          7          8          9         10
     6  H    0.000000
     7  H    2.039946   0.000000
     8  H    3.188607   2.595607   0.000000
     9  H    2.584402   3.174168   1.688028   0.000000
    10  H    4.185001   2.982574   2.617114   3.856204   0.000000
    11  H    2.024030   1.991987   2.982621   3.114240   2.595609
    12  H    3.099094   2.023994   4.185007   4.752854   3.188606
                   11         12
    11  H    0.000000
    12  H    2.039941   0.000000
 Symmetry turned off by external request.
 Stoichiometry    B2H8N2
 Framework group  C1[X(B2H8N2)]
 Deg. of freedom    30
 Full point group                 C1      NOp   1
 Rotational constants (GHZ):          14.7130975           4.2194290           3.4040560
 Standard basis: 6-31G(d,p) (6D, 7F)
   100 basis functions,   168 primitive gaussians,   100 cartesian basis functions
    16 alpha electrons       16 beta electrons
       nuclear repulsion energy       111.3403025906 Hartrees.
 NAtoms=   12 NActive=   12 NUniq=   12 SFac= 1.00D+00 NAtFMM=   60 NAOKFM=F Big=F
 Integral buffers will be    131072 words long.
 Raffenetti 2 integral format.
 Two-electron integral symmetry is turned off.
 One-electron integrals computed using PRISM.
 NBasis=   100 RedAO= T EigKep=  5.10D-03  NBF=   100
 NBsUse=   100 1.00D-06 EigRej= -1.00D+00 NBFU=   100
 Initial guess from the checkpoint file:  "/scratch/1311850/Gau-12481.chk"
 B after Tr=     0.000004    0.000219    0.000003
         Rot=    1.000000    0.000001    0.000289    0.000000 Ang=   0.03 deg.
 Initial guess <Sx>= 0.0000 <Sy>= 0.0000 <Sz>= 0.0000 <S**2>=-0.0000 S=-0.0000
 ExpMin= 1.27D-01 ExpMax= 4.17D+03 ExpMxC= 6.27D+02 IAcc=2 IRadAn=         4 AccDes= 0.00D+00
 Harris functional with IExCor=  402 and IRadAn=       4 diagonalized for initial guess.
 HarFok:  IExCor=  402 AccDes= 0.00D+00 IRadAn=         4 IDoV= 1 UseB2=F ITyADJ=14
 ICtDFT=  3500011 ScaDFX=  1.000000  1.000000  1.000000  1.000000
 FoFCou: FMM=F IPFlag=           0 FMFlag=      100000 FMFlg1=           0
         NFxFlg=           0 DoJE=T BraDBF=F KetDBF=T FulRan=T
         wScrn=  0.000000 ICntrl=       500 IOpCl=  0 I1Cent=   200000004 NGrid=           0
         NMat0=    1 NMatS0=      1 NMatT0=    0 NMatD0=    1 NMtDS0=    0 NMtDT0=    0
 Symmetry not used in FoFCou.
 Keep R1 and R2 ints in memory in canonical form, NReq=29209630.
 Requested convergence on RMS density matrix=1.00D-08 within1024 cycles.
 Requested convergence on MAX density matrix=1.00D-06.
 Requested convergence on             energy=1.00D-06.
 No special actions if energy rises.
 Integral accuracy reduced to 1.0D-05 until final iterations.
 Initial convergence to 1.0D-05 achieved.  Increase integral accuracy.
 SCF Done:  E(UB3LYP) =  -164.078364853     A.U. after    9 cycles
            NFock=  9  Conv=0.91D-08     -V/T= 2.0100
 <Sx>= 0.0000 <Sy>= 0.0000 <Sz>= 0.0000 <S**2>=-0.0000 S=-0.0000
 <L.S>= 0.000000000000E+00
 Annihilation of the first spin contaminant:
 S**2 before annihilation    -0.0000,   after     0.0000
 DoSCS=F DFT=T ScalE2(SS,OS)=  1.000000  1.000000
 Range of M.O.s used for correlation:     1   100
 NBasis=   100 NAE=    16 NBE=    16 NFC=     0 NFV=     0
 NROrb=    100 NOA=    16 NOB=    16 NVA=    84 NVB=    84
 Symmetrizing basis deriv contribution to polar:
 IMax=3 JMax=2 DiffMx= 0.00D+00
 Calling FoFJK, ICntrl=      2147 FMM=F ISym2X=0 I1Cent= 0 IOpClX= 1 NMat=1 NMatS=1 NMatT=0.
 -------------------------------------------------------------------
 Center     Atomic                   Forces (Hartrees/Bohr)
 Number     Number              X              Y              Z
 -------------------------------------------------------------------
      1        7           0.000194966    0.000048499   -0.000029600
      2        5           0.000806790   -0.000103890    0.000747328
      3        7          -0.000194744    0.000048979    0.000028805
      4        5          -0.000806438   -0.000104632   -0.000744409
      5        1          -0.000058885    0.000082608    0.000213087
      6        1           0.000081267   -0.000022499   -0.000122419
      7        1           0.000092462   -0.000015004   -0.000008052
      8        1          -0.000001238    0.000010781    0.000135340
      9        1           0.000060184    0.000082493   -0.000213699
     10        1           0.000000567    0.000009495   -0.000134353
     11        1          -0.000094312   -0.000015113    0.000005828
     12        1          -0.000080619   -0.000021717    0.000122145
 -------------------------------------------------------------------
 Cartesian Forces:  Max     0.000806790 RMS     0.000275297
 IRC-IRC-IRC-IRC-IRC-IRC-IRC-IRC-IRC-IRC-IRC-IRC-IRC-IRC-IRC-IRC-IRC-IRC
 Pt  4 Step number   1 out of a maximum of  20
 Modified Bulirsch-Stoer Extrapolation Cycles:
    EPS =    0.000010000000000
      PEZero:  N= 2 I= 1 D=  4.36D-04 Err=  6.21D-06
 Maximum DWI energy   std dev =  0.000000131 at pt    36
 Maximum DWI gradient std dev =  0.116062468 at pt    28
 CORRECTOR INTEGRATION CONVERGENCE:
   Recorrection delta-x convergence threshold:    0.010000
   Delta-x Convergence Met
 Point Number:   4          Path Number:   1
   CHANGE IN THE REACTION COORDINATE =    0.08362
   NET REACTION COORDINATE UP TO THIS POINT =    0.33431
  # OF POINTS ALONG THE PATH =   4
  # OF STEPS =   1

 Calculating another point on the path.
 IRC-IRC-IRC-IRC-IRC-IRC-IRC-IRC-IRC-IRC-IRC-IRC-IRC-IRC-IRC-IRC-IRC-IRC
                          Input orientation:                          
 ---------------------------------------------------------------------
 Center     Atomic      Atomic             Coordinates (Angstroms)
 Number     Number       Type             X           Y           Z
 ---------------------------------------------------------------------
      1          7           0       -1.641985   -0.566939   -0.037401
      2          5           0       -0.957413    0.682704   -0.063440
      3          7           0        1.641927   -0.567111    0.037409
      4          5           0        0.957489    0.682601    0.063438
      5          1           0        2.538089   -0.677204   -0.406777
      6          1           0       -1.531308    1.693971    0.203917
      7          1           0       -0.118324    0.833277   -0.986339
      8          1           0       -1.247555   -1.428515   -0.379709
      9          1           0       -2.538166   -0.676930    0.406765
     10          1           0        1.247376   -1.428653    0.379673
     11          1           0        0.118384    0.833258    0.986308
     12          1           0        1.531492    1.693811   -0.203912
 ---------------------------------------------------------------------
                    Distance matrix (angstroms):
                    1          2          3          4          5
     1  N    0.000000
     2  B    1.425104   0.000000
     3  N    3.284763   2.885962   0.000000
     4  B    2.885963   1.919101   1.425102   0.000000
     5  H    4.197811   3.766400   1.006245   2.137398   0.000000
     6  H    2.276444   1.193104   3.899953   2.690114   4.749254
     7  H    2.276539   1.256377   2.471362   1.510664   3.110302
     8  H    1.007504   2.154403   3.043864   3.084706   3.859573
     9  H    1.006242   2.137399   4.197816   3.766404   5.141033
    10  H    3.043831   3.084683   1.007507   2.154399   1.687934
    11  H    2.471321   1.510622   2.276538   1.256377   3.174454
    12  H    3.899957   2.690115   2.276445   1.193105   2.583817
                    6          7          8          9         10
     6  H    0.000000
     7  H    2.038143   0.000000
     8  H    3.189210   2.599782   0.000000
     9  H    2.583812   3.174445   1.687928   0.000000
    10  H    4.183629   2.974467   2.607937   3.859553   0.000000
    11  H    2.018525   1.986798   2.974460   3.110273   2.599783
    12  H    3.089832   2.018565   4.183650   4.749258   3.189213
                   11         12
    11  H    0.000000
    12  H    2.038148   0.000000
 Symmetry turned off by external request.
 Stoichiometry    B2H8N2
 Framework group  C1[X(B2H8N2)]
 Deg. of freedom    30
 Full point group                 C1      NOp   1
 Rotational constants (GHZ):          14.7504540           4.2339515           3.4130239
 Standard basis: 6-31G(d,p) (6D, 7F)
   100 basis functions,   168 primitive gaussians,   100 cartesian basis functions
    16 alpha electrons       16 beta electrons
       nuclear repulsion energy       111.4483126283 Hartrees.
 NAtoms=   12 NActive=   12 NUniq=   12 SFac= 1.00D+00 NAtFMM=   60 NAOKFM=F Big=F
 Integral buffers will be    131072 words long.
 Raffenetti 2 integral format.
 Two-electron integral symmetry is turned off.
 One-electron integrals computed using PRISM.
 NBasis=   100 RedAO= T EigKep=  4.98D-03  NBF=   100
 NBsUse=   100 1.00D-06 EigRej= -1.00D+00 NBFU=   100
 Initial guess from the checkpoint file:  "/scratch/1311850/Gau-12481.chk"
 B after Tr=    -0.000001    0.000226   -0.000000
         Rot=    1.000000   -0.000000    0.000300   -0.000000 Ang=  -0.03 deg.
 Initial guess <Sx>= 0.0000 <Sy>= 0.0000 <Sz>= 0.0000 <S**2>= 0.0000 S= 0.0000
 ExpMin= 1.27D-01 ExpMax= 4.17D+03 ExpMxC= 6.27D+02 IAcc=2 IRadAn=         4 AccDes= 0.00D+00
 Harris functional with IExCor=  402 and IRadAn=       4 diagonalized for initial guess.
 HarFok:  IExCor=  402 AccDes= 0.00D+00 IRadAn=         4 IDoV= 1 UseB2=F ITyADJ=14
 ICtDFT=  3500011 ScaDFX=  1.000000  1.000000  1.000000  1.000000
 FoFCou: FMM=F IPFlag=           0 FMFlag=      100000 FMFlg1=           0
         NFxFlg=           0 DoJE=T BraDBF=F KetDBF=T FulRan=T
         wScrn=  0.000000 ICntrl=       500 IOpCl=  0 I1Cent=   200000004 NGrid=           0
         NMat0=    1 NMatS0=      1 NMatT0=    0 NMatD0=    1 NMtDS0=    0 NMtDT0=    0
 Symmetry not used in FoFCou.
 Keep R1 and R2 ints in memory in canonical form, NReq=29209630.
 Requested convergence on RMS density matrix=1.00D-08 within1024 cycles.
 Requested convergence on MAX density matrix=1.00D-06.
 Requested convergence on             energy=1.00D-06.
 No special actions if energy rises.
 Integral accuracy reduced to 1.0D-05 until final iterations.
 Initial convergence to 1.0D-05 achieved.  Increase integral accuracy.
 SCF Done:  E(UB3LYP) =  -164.078419374     A.U. after    9 cycles
            NFock=  9  Conv=0.92D-08     -V/T= 2.0100
 <Sx>= 0.0000 <Sy>= 0.0000 <Sz>= 0.0000 <S**2>=-0.0000 S=-0.0000
 <L.S>= 0.000000000000E+00
 Annihilation of the first spin contaminant:
 S**2 before annihilation    -0.0000,   after     0.0000
 DoSCS=F DFT=T ScalE2(SS,OS)=  1.000000  1.000000
 Range of M.O.s used for correlation:     1   100
 NBasis=   100 NAE=    16 NBE=    16 NFC=     0 NFV=     0
 NROrb=    100 NOA=    16 NOB=    16 NVA=    84 NVB=    84
 Symmetrizing basis deriv contribution to polar:
 IMax=3 JMax=2 DiffMx= 0.00D+00
 Calling FoFJK, ICntrl=      2147 FMM=F ISym2X=0 I1Cent= 0 IOpClX= 1 NMat=1 NMatS=1 NMatT=0.
 -------------------------------------------------------------------
 Center     Atomic                   Forces (Hartrees/Bohr)
 Number     Number              X              Y              Z
 -------------------------------------------------------------------
      1        7           0.000210971    0.000047886   -0.000014079
      2        5           0.000871358   -0.000115387    0.000814207
      3        7          -0.000210821    0.000046879    0.000013822
      4        5          -0.000871749   -0.000114777   -0.000817010
      5        1          -0.000071083    0.000093052    0.000250722
      6        1           0.000082978   -0.000021057   -0.000132502
      7        1           0.000099643   -0.000014888   -0.000004971
      8        1          -0.000000939    0.000010137    0.000153616
      9        1           0.000068943    0.000092963   -0.000249386
     10        1           0.000002110    0.000011811   -0.000154455
     11        1          -0.000097727   -0.000014762    0.000007287
     12        1          -0.000083685   -0.000021856    0.000132749
 -------------------------------------------------------------------
 Cartesian Forces:  Max     0.000871749 RMS     0.000299992
 IRC-IRC-IRC-IRC-IRC-IRC-IRC-IRC-IRC-IRC-IRC-IRC-IRC-IRC-IRC-IRC-IRC-IRC
 Pt  5 Step number   1 out of a maximum of  20
 Modified Bulirsch-Stoer Extrapolation Cycles:
    EPS =    0.000010000000000
      PEZero:  N= 2 I= 1 D=  4.36D-04 Err=  7.97D-06
 Maximum DWI energy   std dev =  0.000000137 at pt    36
 Maximum DWI gradient std dev =  0.114999957 at pt    38
 CORRECTOR INTEGRATION CONVERGENCE:
   Recorrection delta-x convergence threshold:    0.010000
   Delta-x Convergence Met
 Point Number:   5          Path Number:   1
   CHANGE IN THE REACTION COORDINATE =    0.08362
   NET REACTION COORDINATE UP TO THIS POINT =    0.41793
  # OF POINTS ALONG THE PATH =   5
  # OF STEPS =   1

 Calculating another point on the path.
 IRC-IRC-IRC-IRC-IRC-IRC-IRC-IRC-IRC-IRC-IRC-IRC-IRC-IRC-IRC-IRC-IRC-IRC
                          Input orientation:                          
 ---------------------------------------------------------------------
 Center     Atomic      Atomic             Coordinates (Angstroms)
 Number     Number       Type             X           Y           Z
 ---------------------------------------------------------------------
      1          7           0       -1.640635   -0.566549   -0.037593
      2          5           0       -0.951918    0.681934   -0.058907
      3          7           0        1.640577   -0.566723    0.037597
      4          5           0        0.951989    0.681835    0.058905
      5          1           0        2.542780   -0.671839   -0.395340
      6          1           0       -1.527811    1.695258    0.196282
      7          1           0       -0.111331    0.832029   -0.984711
      8          1           0       -1.245104   -1.430829   -0.371582
      9          1           0       -2.542874   -0.671556    0.395306
     10          1           0        1.244951   -1.430960    0.371577
     11          1           0        0.111447    0.832028    0.984733
     12          1           0        1.527989    1.695094   -0.196295
 ---------------------------------------------------------------------
                    Distance matrix (angstroms):
                    1          2          3          4          5
     1  N    0.000000
     2  B    1.426007   0.000000
     3  N    3.282073   2.879147   0.000000
     4  B    2.879145   1.907549   1.426009   0.000000
     5  H    4.200004   3.762819   1.006208   2.137612   0.000000
     6  H    2.276663   1.193147   3.896205   2.682407   4.745827
     7  H    2.278558   1.259455   2.463900   1.497445   3.106974
     8  H    1.007459   2.155804   3.039945   3.078293   3.863250
     9  H    1.006212   2.137612   4.200024   3.762832   5.146747
    10  H    3.039939   3.078290   1.007456   2.155805   1.687835
    11  H    2.463931   1.497484   2.278554   1.259455   3.174524
    12  H    3.896202   2.682407   2.276663   1.193145   2.582981
                    6          7          8          9         10
     6  H    0.000000
     7  H    2.036252   0.000000
     8  H    3.189798   2.604208   0.000000
     9  H    2.582977   3.174526   1.687844   0.000000
    10  H    4.182365   2.966503   2.598588   3.863273   0.000000
    11  H    2.013451   1.982004   2.966537   3.107026   2.604210
    12  H    3.080913   2.013417   4.182364   4.745835   3.189797
                   11         12
    11  H    0.000000
    12  H    2.036247   0.000000
 Symmetry turned off by external request.
 Stoichiometry    B2H8N2
 Framework group  C1[X(B2H8N2)]
 Deg. of freedom    30
 Full point group                 C1      NOp   1
 Rotational constants (GHZ):          14.7875190           4.2481612           3.4217489
 Standard basis: 6-31G(d,p) (6D, 7F)
   100 basis functions,   168 primitive gaussians,   100 cartesian basis functions
    16 alpha electrons       16 beta electrons
       nuclear repulsion energy       111.5542354787 Hartrees.
 NAtoms=   12 NActive=   12 NUniq=   12 SFac= 1.00D+00 NAtFMM=   60 NAOKFM=F Big=F
 Integral buffers will be    131072 words long.
 Raffenetti 2 integral format.
 Two-electron integral symmetry is turned off.
 One-electron integrals computed using PRISM.
 NBasis=   100 RedAO= T EigKep=  4.86D-03  NBF=   100
 NBsUse=   100 1.00D-06 EigRej= -1.00D+00 NBFU=   100
 Initial guess from the checkpoint file:  "/scratch/1311850/Gau-12481.chk"
 B after Tr=     0.000002    0.000235    0.000001
         Rot=    1.000000    0.000001    0.000313    0.000000 Ang=   0.04 deg.
 Initial guess <Sx>= 0.0000 <Sy>= 0.0000 <Sz>= 0.0000 <S**2>=-0.0000 S=-0.0000
 ExpMin= 1.27D-01 ExpMax= 4.17D+03 ExpMxC= 6.27D+02 IAcc=2 IRadAn=         4 AccDes= 0.00D+00
 Harris functional with IExCor=  402 and IRadAn=       4 diagonalized for initial guess.
 HarFok:  IExCor=  402 AccDes= 0.00D+00 IRadAn=         4 IDoV= 1 UseB2=F ITyADJ=14
 ICtDFT=  3500011 ScaDFX=  1.000000  1.000000  1.000000  1.000000
 FoFCou: FMM=F IPFlag=           0 FMFlag=      100000 FMFlg1=           0
         NFxFlg=           0 DoJE=T BraDBF=F KetDBF=T FulRan=T
         wScrn=  0.000000 ICntrl=       500 IOpCl=  0 I1Cent=   200000004 NGrid=           0
         NMat0=    1 NMatS0=      1 NMatT0=    0 NMatD0=    1 NMtDS0=    0 NMtDT0=    0
 Symmetry not used in FoFCou.
 Keep R1 and R2 ints in memory in canonical form, NReq=29209630.
 Requested convergence on RMS density matrix=1.00D-08 within1024 cycles.
 Requested convergence on MAX density matrix=1.00D-06.
 Requested convergence on             energy=1.00D-06.
 No special actions if energy rises.
 Integral accuracy reduced to 1.0D-05 until final iterations.
 Initial convergence to 1.0D-05 achieved.  Increase integral accuracy.
 SCF Done:  E(UB3LYP) =  -164.078477780     A.U. after    9 cycles
            NFock=  9  Conv=0.94D-08     -V/T= 2.0100
 <Sx>= 0.0000 <Sy>= 0.0000 <Sz>= 0.0000 <S**2>=-0.0000 S=-0.0000
 <L.S>= 0.000000000000E+00
 Annihilation of the first spin contaminant:
 S**2 before annihilation    -0.0000,   after     0.0000
 DoSCS=F DFT=T ScalE2(SS,OS)=  1.000000  1.000000
 Range of M.O.s used for correlation:     1   100
 NBasis=   100 NAE=    16 NBE=    16 NFC=     0 NFV=     0
 NROrb=    100 NOA=    16 NOB=    16 NVA=    84 NVB=    84
 Symmetrizing basis deriv contribution to polar:
 IMax=3 JMax=2 DiffMx= 0.00D+00
 Calling FoFJK, ICntrl=      2147 FMM=F ISym2X=0 I1Cent= 0 IOpClX= 1 NMat=1 NMatS=1 NMatT=0.
 -------------------------------------------------------------------
 Center     Atomic                   Forces (Hartrees/Bohr)
 Number     Number              X              Y              Z
 -------------------------------------------------------------------
      1        7           0.000202272    0.000038270    0.000015896
      2        5           0.000875741   -0.000117083    0.000838785
      3        7          -0.000203378    0.000039409   -0.000015891
      4        5          -0.000875292   -0.000117668   -0.000835780
      5        1          -0.000090049    0.000100119    0.000284364
      6        1           0.000081409   -0.000022081   -0.000136182
      7        1           0.000096437   -0.000012698   -0.000008162
      8        1          -0.000005174    0.000013878    0.000167930
      9        1           0.000093157    0.000100031   -0.000285884
     10        1           0.000003947    0.000012035   -0.000166770
     11        1          -0.000098301   -0.000012867    0.000005781
     12        1          -0.000080769   -0.000021344    0.000135913
 -------------------------------------------------------------------
 Cartesian Forces:  Max     0.000875741 RMS     0.000306177
 IRC-IRC-IRC-IRC-IRC-IRC-IRC-IRC-IRC-IRC-IRC-IRC-IRC-IRC-IRC-IRC-IRC-IRC
 Pt  6 Step number   1 out of a maximum of  20
 Modified Bulirsch-Stoer Extrapolation Cycles:
    EPS =    0.000010000000000
      PEZero:  N= 2 I= 1 D=  4.36D-04 Err=  9.79D-06
 Maximum DWI energy   std dev =  0.000000135 at pt    49
 Maximum DWI gradient std dev =  0.124563678 at pt    38
 CORRECTOR INTEGRATION CONVERGENCE:
   Recorrection delta-x convergence threshold:    0.010000
   Delta-x Convergence Met
 Point Number:   6          Path Number:   1
   CHANGE IN THE REACTION COORDINATE =    0.08362
   NET REACTION COORDINATE UP TO THIS POINT =    0.50155
  # OF POINTS ALONG THE PATH =   6
  # OF STEPS =   1

 Calculating another point on the path.
 IRC-IRC-IRC-IRC-IRC-IRC-IRC-IRC-IRC-IRC-IRC-IRC-IRC-IRC-IRC-IRC-IRC-IRC
                          Input orientation:                          
 ---------------------------------------------------------------------
 Center     Atomic      Atomic             Coordinates (Angstroms)
 Number     Number       Type             X           Y           Z
 ---------------------------------------------------------------------
      1          7           0       -1.639260   -0.566185   -0.037686
      2          5           0       -0.946646    0.681187   -0.054428
      3          7           0        1.639201   -0.566358    0.037692
      4          5           0        0.946722    0.681085    0.054427
      5          1           0        2.547797   -0.666259   -0.382887
      6          1           0       -1.524497    1.696430    0.188569
      7          1           0       -0.104654    0.830966   -0.983269
      8          1           0       -1.242700   -1.433230   -0.363019
      9          1           0       -2.547857   -0.665991    0.382898
     10          1           0        1.242526   -1.433367    0.362989
     11          1           0        0.104706    0.830946    0.983233
     12          1           0        1.524682    1.696271   -0.188561
 ---------------------------------------------------------------------
                    Distance matrix (angstroms):
                    1          2          3          4          5
     1  N    0.000000
     2  B    1.426861   0.000000
     3  N    3.279327   2.872536   0.000000
     4  B    2.872538   1.896495   1.426857   0.000000
     5  H    4.202455   3.759605   1.006188   2.137761   0.000000
     6  H    2.276794   1.193180   3.892552   2.675041   4.742620
     7  H    2.280609   1.262589   2.456808   1.484813   3.104455
     8  H    1.007406   2.157228   3.036015   3.072158   3.867364
     9  H    1.006181   2.137760   4.202446   3.759600   5.152875
    10  H    3.035990   3.072141   1.007409   2.157225   1.687756
    11  H    2.456760   1.484760   2.280610   1.262589   3.174366
    12  H    3.892557   2.675042   2.276795   1.193181   2.581874
                    6          7          8          9         10
     6  H    0.000000
     7  H    2.034254   0.000000
     8  H    3.190365   2.608916   0.000000
     9  H    2.581872   3.174356   1.687745   0.000000
    10  H    4.181204   2.958802   2.589099   3.867334   0.000000
    11  H    2.008695   1.977615   2.958782   3.104403   2.608918
[...]
 Initial guess from the checkpoint file:  "/scratch/1311850/Gau-12481.chk"
 B after Tr=     0.000233    0.000016    0.000298
         Rot=    1.000000    0.000028    0.000025   -0.000074 Ang=   0.01 deg.
 Initial guess <Sx>= 0.0000 <Sy>= 0.0000 <Sz>= 0.0000 <S**2>=-0.0000 S=-0.0000
 ExpMin= 1.27D-01 ExpMax= 4.17D+03 ExpMxC= 6.27D+02 IAcc=2 IRadAn=         4 AccDes= 0.00D+00
 Harris functional with IExCor=  402 and IRadAn=       4 diagonalized for initial guess.
 HarFok:  IExCor=  402 AccDes= 0.00D+00 IRadAn=         4 IDoV= 1 UseB2=F ITyADJ=14
 ICtDFT=  3500011 ScaDFX=  1.000000  1.000000  1.000000  1.000000
 FoFCou: FMM=F IPFlag=           0 FMFlag=      100000 FMFlg1=           0
         NFxFlg=           0 DoJE=T BraDBF=F KetDBF=T FulRan=T
         wScrn=  0.000000 ICntrl=       500 IOpCl=  0 I1Cent=   200000004 NGrid=           0
         NMat0=    1 NMatS0=      1 NMatT0=    0 NMatD0=    1 NMtDS0=    0 NMtDT0=    0
 Symmetry not used in FoFCou.
 Keep R1 and R2 ints in memory in canonical form, NReq=29209630.
 Requested convergence on RMS density matrix=1.00D-08 within1024 cycles.
 Requested convergence on MAX density matrix=1.00D-06.
 Requested convergence on             energy=1.00D-06.
 No special actions if energy rises.
 Integral accuracy reduced to 1.0D-05 until final iterations.
 Initial convergence to 1.0D-05 achieved.  Increase integral accuracy.
 SCF Done:  E(UB3LYP) =  -164.078760203     A.U. after    9 cycles
            NFock=  9  Conv=0.34D-08     -V/T= 2.0099
 <Sx>= 0.0000 <Sy>= 0.0000 <Sz>= 0.0000 <S**2>=-0.0000 S=-0.0000
 <L.S>= 0.000000000000E+00
 Annihilation of the first spin contaminant:
 S**2 before annihilation    -0.0000,   after     0.0000
 DoSCS=F DFT=T ScalE2(SS,OS)=  1.000000  1.000000
 Range of M.O.s used for correlation:     1   100
 NBasis=   100 NAE=    16 NBE=    16 NFC=     0 NFV=     0
 NROrb=    100 NOA=    16 NOB=    16 NVA=    84 NVB=    84
 Symmetrizing basis deriv contribution to polar:
 IMax=3 JMax=2 DiffMx= 0.00D+00
 Calling FoFJK, ICntrl=      2147 FMM=F ISym2X=0 I1Cent= 0 IOpClX= 1 NMat=1 NMatS=1 NMatT=0.
 -------------------------------------------------------------------
 Center     Atomic                   Forces (Hartrees/Bohr)
 Number     Number              X              Y              Z
 -------------------------------------------------------------------
      1        7           0.001250825   -0.000029762   -0.000152595
      2        5           0.000276514   -0.000056249    0.000134096
      3        7           0.001136822    0.000008206   -0.000699416
      4        5          -0.000320756   -0.000021676   -0.000283711
      5        1          -0.001221344    0.000096524    0.000636843
      6        1          -0.000026221    0.000037928   -0.000033222
      7        1           0.000068548   -0.000008507    0.000072129
      8        1           0.000000639    0.000036987    0.000026614
      9        1          -0.001161541    0.000014362    0.000196967
     10        1           0.000016565   -0.000062491   -0.000011736
     11        1           0.000001200    0.000012420    0.000057253
     12        1          -0.000021249   -0.000027742    0.000056778
 -------------------------------------------------------------------
 Cartesian Forces:  Max     0.001250825 RMS     0.000440140
 IRC-IRC-IRC-IRC-IRC-IRC-IRC-IRC-IRC-IRC-IRC-IRC-IRC-IRC-IRC-IRC-IRC-IRC
 Error in corrector energy =          -0.0000099638
 Magnitude of corrector gradient =     0.0008550160
 Magnitude of analytic gradient =      0.0026408379
 Magnitude of difference =             0.0026355809
 Angle between gradients (degrees)=   80.3269
 Pt 12 Step number  18 out of a maximum of  20
 Modified Bulirsch-Stoer Extrapolation Cycles:
    EPS =    0.000010000000000
      PEZero:  N= 2 I= 1 D=  4.35D-04 Err=  9.86D-05
      PEZero:  N= 3 I= 2 D=  4.35D-04 Err=  5.98D-05
      PEZero:  N= 3 I= 1 D=  8.70D-04 Err=  8.87D-06
 Maximum DWI energy   std dev =  0.000002137 at pt    -1
 Maximum DWI gradient std dev =  0.723512495 at pt    28
 CORRECTOR INTEGRATION CONVERGENCE:
   Recorrection delta-x convergence threshold:    0.010000
   Delta-x Convergence NOT Met
 IRC-IRC-IRC-IRC-IRC-IRC-IRC-IRC-IRC-IRC-IRC-IRC-IRC-IRC-IRC-IRC-IRC-IRC
                          Input orientation:                          
 ---------------------------------------------------------------------
 Center     Atomic      Atomic             Coordinates (Angstroms)
 Number     Number       Type             X           Y           Z
 ---------------------------------------------------------------------
      1          7           0       -1.632286   -0.565052   -0.034654
      2          5           0       -0.925761    0.678045   -0.035743
      3          7           0        1.632725   -0.565144    0.035345
      4          5           0        0.925730    0.678094    0.035719
      5          1           0        2.575230   -0.636624   -0.303637
      6          1           0       -1.512902    1.700595    0.147267
      7          1           0       -0.074067    0.828150   -0.977208
      8          1           0       -1.234028   -1.445730   -0.316925
      9          1           0       -2.582096   -0.633167    0.293670
     10          1           0        1.233497   -1.445610    0.317245
     11          1           0        0.076174    0.828802    0.978934
     12          1           0        1.512551    1.700419   -0.148626
 ---------------------------------------------------------------------
                    Distance matrix (angstroms):
                    1          2          3          4          5
     1  N    0.000000
     2  B    1.429848   0.000000
     3  N    3.265761   2.845422   0.000000
     4  B    2.844962   1.852870   1.430204   0.000000
     5  H    4.216712   3.749274   1.004158   2.136467   0.000000
     6  H    2.276071   1.193246   3.878282   2.646674   4.730616
     7  H    2.292916   1.278386   2.424804   1.431130   3.101295
     8  H    1.006917   2.164373   3.019569   3.049515   3.894261
     9  H    1.007261   2.138044   4.223278   3.753770   5.191800
    10  H    3.018597   3.049083   1.007010   2.164277   1.685289
    11  H    2.426731   1.433936   2.292662   1.278325   3.168240
    12  H    3.877543   2.646385   2.276195   1.193101   2.571980
                    6          7          8          9         10
     6  H    0.000000
     7  H    2.023822   0.000000
     8  H    3.192586   2.636667   0.000000
     9  H    2.571197   3.168720   1.688304   0.000000
    10  H    4.179737   2.924947   2.547714   3.901201   0.000000
    11  H    1.994206   1.961904   2.927350   3.110200   2.636320
    12  H    3.039888   1.991170   4.179745   4.733643   3.192554
                   11         12
    11  H    0.000000
    12  H    2.023434   0.000000
 Symmetry turned off by external request.
 Stoichiometry    B2H8N2
 Framework group  C1[X(B2H8N2)]
 Deg. of freedom    30
 Full point group                 C1      NOp   1
 Rotational constants (GHZ):          14.9931105           4.3187066           3.4633455
 Standard basis: 6-31G(d,p) (6D, 7F)
   100 basis functions,   168 primitive gaussians,   100 cartesian basis functions
    16 alpha electrons       16 beta electrons
       nuclear repulsion energy       112.0855080373 Hartrees.
 NAtoms=   12 NActive=   12 NUniq=   12 SFac= 1.00D+00 NAtFMM=   60 NAOKFM=F Big=F
 Integral buffers will be    131072 words long.
 Raffenetti 2 integral format.
 Two-electron integral symmetry is turned off.
 One-electron integrals computed using PRISM.
 NBasis=   100 RedAO= T EigKep=  4.33D-03  NBF=   100
 NBsUse=   100 1.00D-06 EigRej= -1.00D+00 NBFU=   100
 Initial guess from the checkpoint file:  "/scratch/1311850/Gau-12481.chk"
 B after Tr=    -0.000233   -0.000016   -0.000298
         Rot=    1.000000   -0.000028   -0.000025    0.000074 Ang=  -0.01 deg.
 Initial guess <Sx>= 0.0000 <Sy>= 0.0000 <Sz>= 0.0000 <S**2>=-0.0000 S=-0.0000
 ExpMin= 1.27D-01 ExpMax= 4.17D+03 ExpMxC= 6.27D+02 IAcc=2 IRadAn=         4 AccDes= 0.00D+00
 Harris functional with IExCor=  402 and IRadAn=       4 diagonalized for initial guess.
 HarFok:  IExCor=  402 AccDes= 0.00D+00 IRadAn=         4 IDoV= 1 UseB2=F ITyADJ=14
 ICtDFT=  3500011 ScaDFX=  1.000000  1.000000  1.000000  1.000000
 FoFCou: FMM=F IPFlag=           0 FMFlag=      100000 FMFlg1=           0
         NFxFlg=           0 DoJE=T BraDBF=F KetDBF=T FulRan=T
         wScrn=  0.000000 ICntrl=       500 IOpCl=  0 I1Cent=   200000004 NGrid=           0
         NMat0=    1 NMatS0=      1 NMatT0=    0 NMatD0=    1 NMtDS0=    0 NMtDT0=    0
 Symmetry not used in FoFCou.
 Keep R1 and R2 ints in memory in canonical form, NReq=29209630.
 Requested convergence on RMS density matrix=1.00D-08 within1024 cycles.
 Requested convergence on MAX density matrix=1.00D-06.
 Requested convergence on             energy=1.00D-06.
 No special actions if energy rises.
 Integral accuracy reduced to 1.0D-05 until final iterations.
 Initial convergence to 1.0D-05 achieved.  Increase integral accuracy.
 SCF Done:  E(UB3LYP) =  -164.078758471     A.U. after    9 cycles
            NFock=  9  Conv=0.34D-08     -V/T= 2.0099
 <Sx>= 0.0000 <Sy>= 0.0000 <Sz>= 0.0000 <S**2>=-0.0000 S=-0.0000
 <L.S>= 0.000000000000E+00
 Annihilation of the first spin contaminant:
 S**2 before annihilation    -0.0000,   after    -0.0000
 DoSCS=F DFT=T ScalE2(SS,OS)=  1.000000  1.000000
 Range of M.O.s used for correlation:     1   100
 NBasis=   100 NAE=    16 NBE=    16 NFC=     0 NFV=     0
 NROrb=    100 NOA=    16 NOB=    16 NVA=    84 NVB=    84
 Symmetrizing basis deriv contribution to polar:
 IMax=3 JMax=2 DiffMx= 0.00D+00
 Calling FoFJK, ICntrl=      2147 FMM=F ISym2X=0 I1Cent= 0 IOpClX= 1 NMat=1 NMatS=1 NMatT=0.
 -------------------------------------------------------------------
 Center     Atomic                   Forces (Hartrees/Bohr)
 Number     Number              X              Y              Z
 -------------------------------------------------------------------
      1        7          -0.001309257    0.000022851    0.000775147
      2        5           0.000296446   -0.000001248    0.000292840
      3        7          -0.001390083    0.000000311    0.000221903
      4        5          -0.000210645   -0.000076080   -0.000133611
      5        1           0.001322342    0.000023416   -0.000235501
      6        1           0.000038720   -0.000042340   -0.000053328
      7        1          -0.000043665    0.000024523   -0.000104335
      8        1          -0.000016685   -0.000077255   -0.000001539
      9        1           0.001406462    0.000099191   -0.000677247
     10        1          -0.000030665    0.000004622   -0.000031648
     11        1          -0.000091676   -0.000019134   -0.000097599
     12        1           0.000028706    0.000041143    0.000044918
 -------------------------------------------------------------------
 Cartesian Forces:  Max     0.001406462 RMS     0.000495551
 IRC-IRC-IRC-IRC-IRC-IRC-IRC-IRC-IRC-IRC-IRC-IRC-IRC-IRC-IRC-IRC-IRC-IRC
 Error in corrector energy =          -0.0000110588
 Magnitude of corrector gradient =     0.0008046927
 Magnitude of analytic gradient =      0.0029733073
 Magnitude of difference =             0.0029643715
 Angle between gradients (degrees)=   81.5812
 Pt 12 Step number  19 out of a maximum of  20
 Modified Bulirsch-Stoer Extrapolation Cycles:
    EPS =    0.000010000000000
      PEZero:  N= 2 I= 1 D=  4.35D-04 Err=  5.34D-04
      PEZero:  N= 3 I= 2 D=  4.35D-04 Err=  7.32D-05
      PEZero:  N= 3 I= 1 D=  8.70D-04 Err=  4.24D-04
      PEZero:  N= 4 I= 3 D=  2.18D-04 Err=  5.48D-05
      PEZero:  N= 4 I= 2 D=  6.53D-04 Err=  1.51D-07
      PEZero:  N= 4 I= 1 D=  1.09D-03 Err=  4.41D-05
 Maximum DWI energy   std dev =  0.000003541 at pt    -1
 Maximum DWI gradient std dev =  0.991600402 at pt    52
 CORRECTOR INTEGRATION CONVERGENCE:
   Recorrection delta-x convergence threshold:    0.010000
   Delta-x Convergence NOT Met
 IRC-IRC-IRC-IRC-IRC-IRC-IRC-IRC-IRC-IRC-IRC-IRC-IRC-IRC-IRC-IRC-IRC-IRC
                          Input orientation:                          
 ---------------------------------------------------------------------
 Center     Atomic      Atomic             Coordinates (Angstroms)
 Number     Number       Type             X           Y           Z
 ---------------------------------------------------------------------
      1          7           0       -1.632733   -0.564954   -0.035144
      2          5           0       -0.925741    0.678145   -0.035805
      3          7           0        1.632337   -0.565231    0.034924
      4          5           0        0.925887    0.678004    0.035805
      5          1           0        2.580626   -0.634257   -0.296981
      6          1           0       -1.512528    1.700593    0.147851
      7          1           0       -0.075561    0.828579   -0.978588
      8          1           0       -1.233647   -1.445614   -0.316766
      9          1           0       -2.577008   -0.635290    0.299618
     10          1           0        1.233784   -1.445874    0.316958
     11          1           0        0.074662    0.828365    0.977624
     12          1           0        1.512980    1.700465   -0.147671
 ---------------------------------------------------------------------
                    Distance matrix (angstroms):
                    1          2          3          4          5
     1  N    0.000000
     2  B    1.430081   0.000000
     3  N    3.265822   2.845127   0.000000
     4  B    2.845437   1.853012   1.429932   0.000000
     5  H    4.222056   3.753029   1.007064   2.137976   0.000000
     6  H    2.276101   1.193083   3.877742   2.646527   4.733214
     7  H    2.292773   1.278389   2.426279   1.433375   3.108024
     8  H    1.007047   2.164278   3.018713   3.049205   3.899663
     9  H    1.004324   2.136422   4.218241   3.750281   5.192025
    10  H    3.019423   3.049499   1.006936   2.164418   1.688084
    11  H    2.425332   1.431926   2.292846   1.278364   3.169186
    12  H    3.878182   2.646698   2.276173   1.193217   2.571593
                    6          7          8          9         10
     6  H    0.000000
     7  H    2.023400   0.000000
     8  H    3.192532   2.636499   0.000000
     9  H    2.571478   3.167643   1.685577   0.000000
    10  H    4.179841   2.926766   2.547513   3.896085   0.000000
    11  H    1.992103   1.961972   2.925423   3.103761   2.636703
    12  H    3.039906   1.993507   4.179757   4.731154   3.192691
                   11         12
    11  H    0.000000
    12  H    2.023760   0.000000
 Symmetry turned off by external request.
 Stoichiometry    B2H8N2
 Framework group  C1[X(B2H8N2)]
 Deg. of freedom    30
 Full point group                 C1      NOp   1
 Rotational constants (GHZ):          14.9933006           4.3184691           3.4631715
 Standard basis: 6-31G(d,p) (6D, 7F)
   100 basis functions,   168 primitive gaussians,   100 cartesian basis functions
    16 alpha electrons       16 beta electrons
       nuclear repulsion energy       112.0840467743 Hartrees.
 NAtoms=   12 NActive=   12 NUniq=   12 SFac= 1.00D+00 NAtFMM=   60 NAOKFM=F Big=F
 Integral buffers will be    131072 words long.
 Raffenetti 2 integral format.
 Two-electron integral symmetry is turned off.
 One-electron integrals computed using PRISM.
 NBasis=   100 RedAO= T EigKep=  4.33D-03  NBF=   100
 NBsUse=   100 1.00D-06 EigRej= -1.00D+00 NBFU=   100
 Initial guess from the checkpoint file:  "/scratch/1311850/Gau-12481.chk"
 B after Tr=     0.000233    0.000016    0.000298
         Rot=    1.000000    0.000028    0.000025   -0.000074 Ang=   0.01 deg.
 Initial guess <Sx>= 0.0000 <Sy>= 0.0000 <Sz>= 0.0000 <S**2>= 0.0000 S= 0.0000
 ExpMin= 1.27D-01 ExpMax= 4.17D+03 ExpMxC= 6.27D+02 IAcc=2 IRadAn=         4 AccDes= 0.00D+00
 Harris functional with IExCor=  402 and IRadAn=       4 diagonalized for initial guess.
 HarFok:  IExCor=  402 AccDes= 0.00D+00 IRadAn=         4 IDoV= 1 UseB2=F ITyADJ=14
 ICtDFT=  3500011 ScaDFX=  1.000000  1.000000  1.000000  1.000000
 FoFCou: FMM=F IPFlag=           0 FMFlag=      100000 FMFlg1=           0
         NFxFlg=           0 DoJE=T BraDBF=F KetDBF=T FulRan=T
         wScrn=  0.000000 ICntrl=       500 IOpCl=  0 I1Cent=   200000004 NGrid=           0
         NMat0=    1 NMatS0=      1 NMatT0=    0 NMatD0=    1 NMtDS0=    0 NMtDT0=    0
 Symmetry not used in FoFCou.
 Keep R1 and R2 ints in memory in canonical form, NReq=29209630.
 Requested convergence on RMS density matrix=1.00D-08 within1024 cycles.
 Requested convergence on MAX density matrix=1.00D-06.
 Requested convergence on             energy=1.00D-06.
 No special actions if energy rises.
 Integral accuracy reduced to 1.0D-05 until final iterations.
 Initial convergence to 1.0D-05 achieved.  Increase integral accuracy.
 SCF Done:  E(UB3LYP) =  -164.078760203     A.U. after    9 cycles
            NFock=  9  Conv=0.34D-08     -V/T= 2.0099
 <Sx>= 0.0000 <Sy>= 0.0000 <Sz>= 0.0000 <S**2>=-0.0000 S=-0.0000
 <L.S>= 0.000000000000E+00
 Annihilation of the first spin contaminant:
 S**2 before annihilation    -0.0000,   after     0.0000
 DoSCS=F DFT=T ScalE2(SS,OS)=  1.000000  1.000000
 Range of M.O.s used for correlation:     1   100
 NBasis=   100 NAE=    16 NBE=    16 NFC=     0 NFV=     0
 NROrb=    100 NOA=    16 NOB=    16 NVA=    84 NVB=    84
 Symmetrizing basis deriv contribution to polar:
 IMax=3 JMax=2 DiffMx= 0.00D+00
 Calling FoFJK, ICntrl=      2147 FMM=F ISym2X=0 I1Cent= 0 IOpClX= 1 NMat=1 NMatS=1 NMatT=0.
 -------------------------------------------------------------------
 Center     Atomic                   Forces (Hartrees/Bohr)
 Number     Number              X              Y              Z
 -------------------------------------------------------------------
      1        7           0.001250479   -0.000029701   -0.000152456
      2        5           0.000276598   -0.000056263    0.000134095
      3        7           0.001137220    0.000008276   -0.000699574
      4        5          -0.000320837   -0.000021690   -0.000283700
      5        1          -0.001221656    0.000096543    0.000636943
      6        1          -0.000026249    0.000037964   -0.000033219
      7        1           0.000068573   -0.000008510    0.000072158
      8        1           0.000000690    0.000036891    0.000026573
      9        1          -0.001161271    0.000014377    0.000196881
     10        1           0.000016505   -0.000062601   -0.000011691
     11        1           0.000001169    0.000012417    0.000057218
     12        1          -0.000021222   -0.000027705    0.000056772
 -------------------------------------------------------------------
 Cartesian Forces:  Max     0.001250479 RMS     0.000440157
 IRC-IRC-IRC-IRC-IRC-IRC-IRC-IRC-IRC-IRC-IRC-IRC-IRC-IRC-IRC-IRC-IRC-IRC
 Error in corrector energy =          -0.0000099638
 Magnitude of corrector gradient =     0.0008550093
 Magnitude of analytic gradient =      0.0026409411
 Magnitude of difference =             0.0026356917
 Angle between gradients (degrees)=   80.3279
 Pt 12 Step number  20 out of a maximum of  20
 Modified Bulirsch-Stoer Extrapolation Cycles:
    EPS =    0.000010000000000
      PEZero:  N= 2 I= 1 D=  4.35D-04 Err=  9.86D-05
      PEZero:  N= 3 I= 2 D=  4.35D-04 Err=  5.98D-05
      PEZero:  N= 3 I= 1 D=  8.70D-04 Err=  8.87D-06
 Maximum DWI energy   std dev =  0.000002137 at pt    -1
 Maximum DWI gradient std dev =  0.723563125 at pt    28
 CORRECTOR INTEGRATION CONVERGENCE:
   Recorrection delta-x convergence threshold:    0.010000
   Delta-x Convergence NOT Met
 Maximum number of corrector steps exceded.
 Error termination via Lnk1e in /opt/gaussian/g16/legacy/g16/l123.exe at Fri Jul  3 19:24:46 2020.
 Job cpu time:       0 days  1 hours  2 minutes 45.6 seconds.
 Elapsed time:       0 days  0 hours 16 minutes  8.0 seconds.
 File lengths (MBytes):  RWF=     29 Int=      0 D2E=      0 Chk=      4 Scr=      1
