 Entering Gaussian System, Link 0=/opt/gaussian/g16/legacy/g16/g16
 Initial command:
 /opt/gaussian/g16/legacy/g16/l1.exe "/scratch/1311822/Gau-26009.inp" -scrdir="/scratch/1311822/"
 Entering Link 1 = /opt/gaussian/g16/legacy/g16/l1.exe PID=     26020.
  
 Copyright (c) 1988,1990,1992,1993,1995,1998,2003,2009,2016,
            Gaussian, Inc.  All Rights Reserved.
  
 This is part of the Gaussian(R) 16 program.  It is based on
 the Gaussian(R) 09 system (copyright 2009, Gaussian, Inc.),
 the Gaussian(R) 03 system (copyright 2003, Gaussian, Inc.),
 the Gaussian(R) 98 system (copyright 1998, Gaussian, Inc.),
 the Gaussian(R) 94 system (copyright 1995, Gaussian, Inc.),
 the Gaussian 92(TM) system (copyright 1992, Gaussian, Inc.),
 the Gaussian 90(TM) system (copyright 1990, Gaussian, Inc.),
 the Gaussian 88(TM) system (copyright 1988, Gaussian, Inc.),
 the Gaussian 86(TM) system (copyright 1986, Carnegie Mellon
 University), and the Gaussian 82(TM) system (copyright 1983,
 Carnegie Mellon University). Gaussian is a federally registered
 trademark of Gaussian, Inc.
  
 This software contains proprietary and confidential information,
 including trade secrets, belonging to Gaussian, Inc.
  
 This software is provided under written license and may be
 used, copied, transmitted, or stored only in accord with that
 written license.
  
 The following legend is applicable only to US Government
 contracts under FAR:
  
                    RESTRICTED RIGHTS LEGEND
  
 Use, reproduction and disclosure by the US Government is
 subject to restrictions as set forth in subparagraphs (a)
 and (c) of the Commercial Computer Software - Restricted
 Rights clause in FAR 52.227-19.
  
 Gaussian, Inc.
 340 Quinnipiac St., Bldg. 40, Wallingford CT 06492
  
  
 ---------------------------------------------------------------
 Warning -- This program may not be used in any manner that
 competes with the business of Gaussian, Inc. or will provide
 assistance to any competitor of Gaussian, Inc.  The licensee
 of this program is prohibited from giving any competitor of
 Gaussian, Inc. access to this program.  By using this program,
 the user acknowledges that Gaussian, Inc. is engaged in the
 business of creating and licensing software in the field of
 computational chemistry and represents and warrants to the
 licensee that it is not a competitor of Gaussian, Inc. and that
 it will not use this program in any manner prohibited above.
 ---------------------------------------------------------------
  

 Cite this work as:
 Gaussian 16, Revision A.03,
 M. J. Frisch, G. W. Trucks, H. B. Schlegel, G. E. Scuseria, 
 M. A. Robb, J. R. Cheeseman, G. Scalmani, V. Barone, 
 G. A. Petersson, H. Nakatsuji, X. Li, M. Caricato, A. V. Marenich, 
 J. Bloino, B. G. Janesko, R. Gomperts, B. Mennucci, H. P. Hratchian, 
 J. V. Ortiz, A. F. Izmaylov, J. L. Sonnenberg, D. Williams-Young, 
 F. Ding, F. Lipparini, F. Egidi, J. Goings, B. Peng, A. Petrone, 
 T. Henderson, D. Ranasinghe, V. G. Zakrzewski, J. Gao, N. Rega, 
 G. Zheng, W. Liang, M. Hada, M. Ehara, K. Toyota, R. Fukuda, 
 J. Hasegawa, M. Ishida, T. Nakajima, Y. Honda, O. Kitao, H. Nakai, 
 T. Vreven, K. Throssell, J. A. Montgomery, Jr., J. E. Peralta, 
 F. Ogliaro, M. J. Bearpark, J. J. Heyd, E. N. Brothers, K. N. Kudin, 
 V. N. Staroverov, T. A. Keith, R. Kobayashi, J. Normand, 
 K. Raghavachari, A. P. Rendell, J. C. Burant, S. S. Iyengar, 
 J. Tomasi, M. Cossi, J. M. Millam, M. Klene, C. Adamo, R. Cammi, 
 J. W. Ochterski, R. L. Martin, K. Morokuma, O. Farkas, 
 J. B. Foresman, and D. J. Fox, Gaussian, Inc., Wallingford CT, 2016.
 
 ******************************************
 Gaussian 16:  EM64L-G16RevA.03 25-Dec-2016
                 3-Jul-2020 
 ******************************************
 %mem=16GB
 %nprocshared=4
 Will use up to    4 processors via shared memory.
 ------------------------------------------------
 #opt freq ub3lyp/6-31G(d,p) scf=(maxcycles=1024)
 ------------------------------------------------
 1/18=20,19=15,26=3,38=1/1,3;
 2/9=110,12=2,17=6,18=5,40=1/2;
 3/5=1,6=6,7=101,11=2,25=1,30=1,71=1,74=-5,116=2/1,2,3;
 4//1;
 5/5=2,7=1024,38=5/2;
 6/7=2,8=2,9=2,10=2,28=1/1;
 7//1,2,3,16;
 1/18=20,19=15,26=3/3(2);
 2/9=110/2;
 99//99;
 2/9=110/2;
 3/5=1,6=6,7=101,11=2,25=1,30=1,71=1,74=-5,116=2/1,2,3;
 4/5=5,16=3,69=1/1;
 5/5=2,7=1024,38=5/2;
 7//1,2,3,16;
 1/18=20,19=15,26=3/3(-5);
 2/9=110/2;
 6/7=2,8=2,9=2,10=2,19=2,28=1/1;
 99/9=1/99;
 ---------------
 something title
 ---------------
 Symbolic Z-matrix:
 Charge =  0 Multiplicity = 1
 N                     1.16214  -0.71302  -0.1937 
 B                     1.37786   0.69252  -0.16568 
 N                    -1.71756   0.0261   -0.24601 
 B                    -0.6941    0.15147   0.71827 
 H                    -1.88846   0.72154  -0.95622 
 H                     1.06841   1.34257  -1.12117 
 H                     2.06487   1.15006   0.69706 
 H                     1.54496  -1.34522   0.49564 
 H                     0.71916  -1.18658  -0.97098 
 H                    -2.35531  -0.7547   -0.27616 
 H                    -0.6338   -0.59169   1.65923 
 H                    -0.13669   1.2165    0.81164 
 
 Add virtual bond connecting atoms H12        and B2         Dist= 3.55D+00.

 GradGradGradGradGradGradGradGradGradGradGradGradGradGradGradGradGradGrad
 Berny optimization.
 Initialization pass.
                           ----------------------------
                           !    Initial Parameters    !
                           ! (Angstroms and Degrees)  !
 --------------------------                            --------------------------
 ! Name  Definition              Value          Derivative Info.                !
 --------------------------------------------------------------------------------
 ! R1    R(1,2)                  1.4223         estimate D2E/DX2                !
 ! R2    R(1,8)                  1.0107         estimate D2E/DX2                !
 ! R3    R(1,9)                  1.0123         estimate D2E/DX2                !
 ! R4    R(2,6)                  1.1964         estimate D2E/DX2                !
 ! R5    R(2,7)                  1.194          estimate D2E/DX2                !
 ! R6    R(2,12)                 1.8771         estimate D2E/DX2                !
 ! R7    R(3,4)                  1.4117         estimate D2E/DX2                !
 ! R8    R(3,5)                  1.0086         estimate D2E/DX2                !
 ! R9    R(3,10)                 1.0086         estimate D2E/DX2                !
 ! R10   R(4,11)                 1.2006         estimate D2E/DX2                !
 ! R11   R(4,12)                 1.2057         estimate D2E/DX2                !
 ! A1    A(2,1,8)              123.1812         estimate D2E/DX2                !
 ! A2    A(2,1,9)              122.9445         estimate D2E/DX2                !
 ! A3    A(8,1,9)              113.3824         estimate D2E/DX2                !
 ! A4    A(1,2,6)              118.8159         estimate D2E/DX2                !
 ! A5    A(1,2,7)              118.6981         estimate D2E/DX2                !
 ! A6    A(1,2,12)              99.4239         estimate D2E/DX2                !
 ! A7    A(6,2,7)              121.1779         estimate D2E/DX2                !
 ! A8    A(6,2,12)              93.1788         estimate D2E/DX2                !
 ! A9    A(7,2,12)              88.9159         estimate D2E/DX2                !
 ! A10   A(4,3,5)              122.8596         estimate D2E/DX2                !
 ! A11   A(4,3,10)             123.2001         estimate D2E/DX2                !
 ! A12   A(5,3,10)             113.9283         estimate D2E/DX2                !
 ! A13   A(3,4,11)             121.1171         estimate D2E/DX2                !
 ! A14   A(3,4,12)             117.8072         estimate D2E/DX2                !
 ! A15   A(11,4,12)            117.5729         estimate D2E/DX2                !
 ! A16   A(2,12,4)              94.9406         estimate D2E/DX2                !
 ! D1    D(8,1,2,6)            168.592          estimate D2E/DX2                !
 ! D2    D(8,1,2,7)              1.492          estimate D2E/DX2                !
 ! D3    D(8,1,2,12)           -92.4644         estimate D2E/DX2                !
 ! D4    D(9,1,2,6)             -2.8245         estimate D2E/DX2                !
 ! D5    D(9,1,2,7)           -169.9246         estimate D2E/DX2                !
 ! D6    D(9,1,2,12)            96.119          estimate D2E/DX2                !
 ! D7    D(1,2,12,4)           -12.729          estimate D2E/DX2                !
 ! D8    D(6,2,12,4)           107.1759         estimate D2E/DX2                !
 ! D9    D(7,2,12,4)          -131.657          estimate D2E/DX2                !
 ! D10   D(5,3,4,11)           169.3885         estimate D2E/DX2                !
 ! D11   D(5,3,4,12)            11.0123         estimate D2E/DX2                !
 ! D12   D(10,3,4,11)           -9.2783         estimate D2E/DX2                !
 ! D13   D(10,3,4,12)         -167.6546         estimate D2E/DX2                !
 ! D14   D(3,4,12,2)          -100.7481         estimate D2E/DX2                !
 ! D15   D(11,4,12,2)          100.1011         estimate D2E/DX2                !
 --------------------------------------------------------------------------------
 Trust Radius=3.00D-01 FncErr=1.00D-07 GrdErr=1.00D-06 EigMax=2.50D+02 EigMin=1.00D-04
 Number of steps in this run=     52 maximum allowed number of steps=    100.
 GradGradGradGradGradGradGradGradGradGradGradGradGradGradGradGradGradGrad

                          Input orientation:                          
 ---------------------------------------------------------------------
 Center     Atomic      Atomic             Coordinates (Angstroms)
 Number     Number       Type             X           Y           Z
 ---------------------------------------------------------------------
      1          7           0        1.162140   -0.713020   -0.193700
      2          5           0        1.377860    0.692520   -0.165680
      3          7           0       -1.717560    0.026100   -0.246010
      4          5           0       -0.694100    0.151470    0.718270
      5          1           0       -1.888460    0.721540   -0.956220
      6          1           0        1.068410    1.342570   -1.121170
      7          1           0        2.064870    1.150060    0.697060
      8          1           0        1.544960   -1.345220    0.495640
      9          1           0        0.719160   -1.186580   -0.970980
     10          1           0       -2.355310   -0.754700   -0.276160
     11          1           0       -0.633800   -0.591690    1.659230
     12          1           0       -0.136690    1.216500    0.811640
 ---------------------------------------------------------------------
                    Distance matrix (angstroms):
                    1          2          3          4          5
     1  N    0.000000
     2  B    1.422274   0.000000
     3  N    2.973501   3.167364   0.000000
     4  B    2.241575   2.316705   1.411745   0.000000
     5  H    3.456235   3.360750   1.008584   2.134337   0.000000
     6  H    2.257086   1.196363   3.203221   2.812241   3.025883
     7  H    2.253762   1.194004   4.057024   2.934203   4.306481
     8  H    1.010652   2.148872   3.615882   2.702413   4.262366
     9  H    1.012252   2.147885   2.816696   2.577062   3.231226
    10  H    3.518663   4.005398   1.008604   2.137675   1.691069
    11  H    2.583306   3.004375   2.277310   1.200553   3.184230
    12  H    2.533913   1.877118   2.243842   1.205700   2.537521
                    6          7          8          9         10
     6  H    0.000000
     7  H    2.082295   0.000000
     8  H    3.172600   2.556814   0.000000
     9  H    2.557564   3.170675   1.690588   0.000000
    10  H    4.102980   4.910525   4.019514   3.181456   0.000000
    11  H    3.790713   3.352952   2.582391   3.017018   2.595362
    12  H    2.281209   2.205541   3.080619   3.112074   3.160888
                   11         12
    11  H    0.000000
    12  H    2.057931   0.000000
 Stoichiometry    B2H8N2
 Framework group  C1[X(B2H8N2)]
 Deg. of freedom    30
 Full point group                 C1      NOp   1
 Largest Abelian subgroup         C1      NOp   1
 Largest concise Abelian subgroup C1      NOp   1
                         Standard orientation:                         
 ---------------------------------------------------------------------
 Center     Atomic      Atomic             Coordinates (Angstroms)
 Number     Number       Type             X           Y           Z
 ---------------------------------------------------------------------
      1          7           0        1.173185   -0.709029   -0.149479
      2          5           0        1.376813    0.698315   -0.177471
      3          7           0       -1.711618    0.001707   -0.269776
      4          5           0       -0.702107    0.176246    0.701536
      5          1           0       -1.878870    0.665384   -1.010587
      6          1           0        1.074657    1.305187   -1.163216
      7          1           0        2.048498    1.197505    0.674171
      8          1           0        1.552081   -1.308515    0.570571
      9          1           0        0.744501   -1.218497   -0.911926
     10          1           0       -2.342395   -0.785295   -0.275474
     11          1           0       -0.648103   -0.526466    1.673445
     12          1           0       -0.154864    1.249144    0.757474
 ---------------------------------------------------------------------
 Rotational constants (GHZ):          13.8194519           4.2454799           3.9890998
 Standard basis: 6-31G(d,p) (6D, 7F)
 There are   100 symmetry adapted cartesian basis functions of A   symmetry.
 There are   100 symmetry adapted basis functions of A   symmetry.
   100 basis functions,   168 primitive gaussians,   100 cartesian basis functions
    16 alpha electrons       16 beta electrons
       nuclear repulsion energy       111.9394837837 Hartrees.
 NAtoms=   12 NActive=   12 NUniq=   12 SFac= 1.00D+00 NAtFMM=   60 NAOKFM=F Big=F
 Integral buffers will be    131072 words long.
 Raffenetti 2 integral format.
 Two-electron integral symmetry is turned on.
 One-electron integrals computed using PRISM.
 NBasis=   100 RedAO= T EigKep=  6.44D-03  NBF=   100
 NBsUse=   100 1.00D-06 EigRej= -1.00D+00 NBFU=   100
 ExpMin= 1.27D-01 ExpMax= 4.17D+03 ExpMxC= 6.27D+02 IAcc=3 IRadAn=         5 AccDes= 0.00D+00
 Harris functional with IExCor=  402 and IRadAn=       5 diagonalized for initial guess.
 HarFok:  IExCor=  402 AccDes= 0.00D+00 IRadAn=         5 IDoV= 1 UseB2=F ITyADJ=14
 ICtDFT=  3500011 ScaDFX=  1.000000  1.000000  1.000000  1.000000
 FoFCou: FMM=F IPFlag=           0 FMFlag=      100000 FMFlg1=           0
         NFxFlg=           0 DoJE=T BraDBF=F KetDBF=T FulRan=T
         wScrn=  0.000000 ICntrl=       500 IOpCl=  0 I1Cent=   200000004 NGrid=           0
         NMat0=    1 NMatS0=      1 NMatT0=    0 NMatD0=    1 NMtDS0=    0 NMtDT0=    0
 Petite list used in FoFCou.
 Initial guess <Sx>= 0.0000 <Sy>= 0.0000 <Sz>= 0.0000 <S**2>= 0.0000 S= 0.0000
 Keep R1 and R2 ints in memory in canonical form, NReq=29209870.
 Requested convergence on RMS density matrix=1.00D-08 within1024 cycles.
 Requested convergence on MAX density matrix=1.00D-06.
 Requested convergence on             energy=1.00D-06.
 No special actions if energy rises.
 Integral accuracy reduced to 1.0D-05 until final iterations.
 Initial convergence to 1.0D-05 achieved.  Increase integral accuracy.
 SCF Done:  E(UB3LYP) =  -164.083803055     A.U. after   13 cycles
            NFock= 13  Conv=0.35D-08     -V/T= 2.0098
 <Sx>= 0.0000 <Sy>= 0.0000 <Sz>= 0.0000 <S**2>= 0.0000 S= 0.0000
 <L.S>= 0.000000000000E+00
 Annihilation of the first spin contaminant:
 S**2 before annihilation     0.0000,   after    -0.0000

 **********************************************************************

            Population analysis using the SCF density.

 **********************************************************************

 Orbital symmetries:
 Alpha Orbitals:
       Occupied  (A) (A) (A) (A) (A) (A) (A) (A) (A) (A) (A) (A)
                 (A) (A) (A) (A)
       Virtual   (A) (A) (A) (A) (A) (A) (A) (A) (A) (A) (A) (A)
                 (A) (A) (A) (A) (A) (A) (A) (A) (A) (A) (A) (A)
                 (A) (A) (A) (A) (A) (A) (A) (A) (A) (A) (A) (A)
                 (A) (A) (A) (A) (A) (A) (A) (A) (A) (A) (A) (A)
                 (A) (A) (A) (A) (A) (A) (A) (A) (A) (A) (A) (A)
                 (A) (A) (A) (A) (A) (A) (A) (A) (A) (A) (A) (A)
                 (A) (A) (A) (A) (A) (A) (A) (A) (A) (A) (A) (A)
 Beta  Orbitals:
       Occupied  (A) (A) (A) (A) (A) (A) (A) (A) (A) (A) (A) (A)
                 (A) (A) (A) (A)
       Virtual   (A) (A) (A) (A) (A) (A) (A) (A) (A) (A) (A) (A)
                 (A) (A) (A) (A) (A) (A) (A) (A) (A) (A) (A) (A)
                 (A) (A) (A) (A) (A) (A) (A) (A) (A) (A) (A) (A)
                 (A) (A) (A) (A) (A) (A) (A) (A) (A) (A) (A) (A)
                 (A) (A) (A) (A) (A) (A) (A) (A) (A) (A) (A) (A)
                 (A) (A) (A) (A) (A) (A) (A) (A) (A) (A) (A) (A)
                 (A) (A) (A) (A) (A) (A) (A) (A) (A) (A) (A) (A)
 The electronic state is 1-A.
 Alpha  occ. eigenvalues --  -14.33592 -14.31166  -6.73902  -6.73625  -0.86929
 Alpha  occ. eigenvalues --   -0.84358  -0.54421  -0.50897  -0.49875  -0.48956
 Alpha  occ. eigenvalues --   -0.40003  -0.38480  -0.31929  -0.31383  -0.30708
 Alpha  occ. eigenvalues --   -0.24235
 Alpha virt. eigenvalues --    0.03654   0.07352   0.08286   0.09964   0.13396
 Alpha virt. eigenvalues --    0.14996   0.18449   0.21756   0.23740   0.24180
 Alpha virt. eigenvalues --    0.27202   0.27294   0.43103   0.44577   0.45805
 Alpha virt. eigenvalues --    0.48714   0.54902   0.56575   0.65974   0.67820
 Alpha virt. eigenvalues --    0.73645   0.73710   0.79435   0.83200   0.83378
 Alpha virt. eigenvalues --    0.88598   0.89346   0.90278   0.92894   0.93949
 Alpha virt. eigenvalues --    0.95261   0.98710   1.08176   1.13812   1.15952
 Alpha virt. eigenvalues --    1.20615   1.25731   1.31529   1.38239   1.42273
 Alpha virt. eigenvalues --    1.47887   1.50718   1.60538   1.69916   1.71188
 Alpha virt. eigenvalues --    1.73128   1.73378   1.83447   2.04763   2.04948
 Alpha virt. eigenvalues --    2.11063   2.12604   2.17045   2.17316   2.24447
 Alpha virt. eigenvalues --    2.27540   2.30702   2.37018   2.39935   2.41018
 Alpha virt. eigenvalues --    2.47151   2.53352   2.56553   2.58085   2.60658
 Alpha virt. eigenvalues --    2.62603   2.63634   2.66889   2.68947   2.71062
 Alpha virt. eigenvalues --    2.94804   2.96431   3.09086   3.13404   3.22592
 Alpha virt. eigenvalues --    3.23746   3.28684   3.30501   3.59823   3.61527
 Alpha virt. eigenvalues --    3.67207   3.69192   4.18486   4.23109
  Beta  occ. eigenvalues --  -14.33592 -14.31166  -6.73902  -6.73625  -0.86929
  Beta  occ. eigenvalues --   -0.84358  -0.54421  -0.50897  -0.49875  -0.48956
  Beta  occ. eigenvalues --   -0.40003  -0.38480  -0.31929  -0.31383  -0.30708
  Beta  occ. eigenvalues --   -0.24235
  Beta virt. eigenvalues --    0.03654   0.07352   0.08286   0.09964   0.13396
  Beta virt. eigenvalues --    0.14996   0.18449   0.21756   0.23740   0.24180
  Beta virt. eigenvalues --    0.27202   0.27294   0.43103   0.44577   0.45805
  Beta virt. eigenvalues --    0.48714   0.54902   0.56575   0.65974   0.67820
  Beta virt. eigenvalues --    0.73645   0.73710   0.79435   0.83200   0.83378
  Beta virt. eigenvalues --    0.88598   0.89346   0.90278   0.92894   0.93949
  Beta virt. eigenvalues --    0.95261   0.98710   1.08176   1.13812   1.15952
  Beta virt. eigenvalues --    1.20615   1.25731   1.31529   1.38239   1.42273
  Beta virt. eigenvalues --    1.47887   1.50718   1.60538   1.69916   1.71188
  Beta virt. eigenvalues --    1.73128   1.73378   1.83447   2.04763   2.04948
  Beta virt. eigenvalues --    2.11063   2.12604   2.17045   2.17316   2.24447
  Beta virt. eigenvalues --    2.27540   2.30702   2.37018   2.39935   2.41018
  Beta virt. eigenvalues --    2.47151   2.53352   2.56553   2.58085   2.60658
  Beta virt. eigenvalues --    2.62603   2.63634   2.66889   2.68947   2.71062
  Beta virt. eigenvalues --    2.94804   2.96431   3.09086   3.13404   3.22592
  Beta virt. eigenvalues --    3.23746   3.28684   3.30501   3.59823   3.61527
  Beta virt. eigenvalues --    3.67207   3.69192   4.18486   4.23109
          Condensed to atoms (all electrons):
               1          2          3          4          5          6
     1  N    6.509465   0.440086  -0.027911   0.040911   0.000267  -0.024723
     2  B    0.440086   3.531023  -0.003935   0.052048  -0.000520   0.409381
     3  N   -0.027911  -0.003935   6.454498   0.485713   0.360691  -0.002139
     4  B    0.040911   0.052048   0.485713   3.516654  -0.038501  -0.003678
     5  H    0.000267  -0.000520   0.360691  -0.038501   0.456353   0.001197
     6  H   -0.024723   0.409381  -0.002139  -0.003678   0.001197   0.733180
     7  H   -0.024876   0.411273   0.000370  -0.007100   0.000007  -0.023886
     8  H    0.353459  -0.033040   0.000483  -0.001248   0.000016   0.003349
     9  H    0.344482  -0.031147   0.007734  -0.000220   0.000104  -0.004417
    10  H   -0.000310   0.000632   0.360133  -0.036697  -0.030902  -0.000035
    11  H   -0.012910  -0.008094  -0.022390   0.403869   0.003462   0.000642
    12  H   -0.039424   0.047031  -0.024593   0.371463  -0.003783  -0.012171
               7          8          9         10         11         12
     1  N   -0.024876   0.353459   0.344482  -0.000310  -0.012910  -0.039424
     2  B    0.411273  -0.033040  -0.031147   0.000632  -0.008094   0.047031
     3  N    0.000370   0.000483   0.007734   0.360133  -0.022390  -0.024593
     4  B   -0.007100  -0.001248  -0.000220  -0.036697   0.403869   0.371463
     5  H    0.000007   0.000016   0.000104  -0.030902   0.003462  -0.003783
     6  H   -0.023886   0.003349  -0.004417  -0.000035   0.000642  -0.012171
     7  H    0.723048  -0.003610   0.003437  -0.000014  -0.000202  -0.007929
     8  H   -0.003610   0.437559  -0.027952   0.000001   0.001737   0.000597
     9  H    0.003437  -0.027952   0.441124   0.000123   0.000454   0.001354
    10  H   -0.000014   0.000001   0.000123   0.460268  -0.002940   0.003265
    11  H   -0.000202   0.001737   0.000454  -0.002940   0.744467  -0.019128
    12  H   -0.007929   0.000597   0.001354   0.003265  -0.019128   0.733666
          Atomic-Atomic Spin Densities.
               1          2          3          4          5          6
     1  N    0.000000   0.000000   0.000000  -0.000000  -0.000000   0.000000
     2  B    0.000000   0.000000   0.000000  -0.000000  -0.000000  -0.000000
     3  N    0.000000   0.000000  -0.000000  -0.000000   0.000000   0.000000
     4  B   -0.000000  -0.000000  -0.000000  -0.000000  -0.000000  -0.000000
     5  H   -0.000000  -0.000000   0.000000  -0.000000   0.000000   0.000000
     6  H    0.000000  -0.000000   0.000000  -0.000000   0.000000   0.000000
     7  H   -0.000000   0.000000   0.000000   0.000000  -0.000000   0.000000
     8  H   -0.000000   0.000000   0.000000   0.000000   0.000000  -0.000000
     9  H    0.000000   0.000000   0.000000  -0.000000   0.000000   0.000000
    10  H   -0.000000   0.000000   0.000000   0.000000   0.000000  -0.000000
    11  H    0.000000   0.000000   0.000000  -0.000000   0.000000   0.000000
    12  H   -0.000000  -0.000000   0.000000   0.000000  -0.000000   0.000000
               7          8          9         10         11         12
     1  N   -0.000000  -0.000000   0.000000  -0.000000   0.000000  -0.000000
     2  B    0.000000   0.000000   0.000000   0.000000   0.000000  -0.000000
     3  N    0.000000   0.000000   0.000000   0.000000   0.000000   0.000000
     4  B    0.000000   0.000000  -0.000000   0.000000  -0.000000   0.000000
     5  H   -0.000000   0.000000   0.000000   0.000000   0.000000  -0.000000
     6  H    0.000000  -0.000000   0.000000  -0.000000   0.000000   0.000000
     7  H   -0.000000   0.000000  -0.000000   0.000000   0.000000   0.000000
     8  H    0.000000  -0.000000   0.000000  -0.000000   0.000000   0.000000
     9  H   -0.000000   0.000000   0.000000  -0.000000   0.000000   0.000000
    10  H    0.000000  -0.000000  -0.000000   0.000000  -0.000000  -0.000000
    11  H    0.000000   0.000000   0.000000  -0.000000   0.000000   0.000000
    12  H    0.000000   0.000000   0.000000  -0.000000   0.000000   0.000000
 Mulliken charges and spin densities:
               1          2
     1  N   -0.558515   0.000000
     2  B    0.185261   0.000000
     3  N   -0.588656  -0.000000
     4  B    0.216787  -0.000000
     5  H    0.251610   0.000000
     6  H   -0.076700   0.000000
     7  H   -0.070519  -0.000000
     8  H    0.268649  -0.000000
     9  H    0.264923   0.000000
    10  H    0.246475   0.000000
    11  H   -0.088968   0.000000
    12  H   -0.050349   0.000000
 Sum of Mulliken charges =   0.00000   0.00000
 Mulliken charges and spin densities with hydrogens summed into heavy atoms:
               1          2
     1  N   -0.024943   0.000000
     2  B    0.038042   0.000000
     3  N   -0.090570   0.000000
     4  B    0.077471  -0.000000
 Electronic spatial extent (au):  <R**2>=            365.5609
 Charge=              0.0000 electrons
 Dipole moment (field-independent basis, Debye):
    X=             -0.8835    Y=             -2.2214    Z=             -1.3235  Tot=              2.7326
 Quadrupole moment (field-independent basis, Debye-Ang):
   XX=            -25.6869   YY=            -25.5733   ZZ=            -27.7186
   XY=             -2.0121   XZ=              3.1652   YZ=             -0.2574
 Traceless Quadrupole moment (field-independent basis, Debye-Ang):
   XX=              0.6394   YY=              0.7530   ZZ=             -1.3923
   XY=             -2.0121   XZ=              3.1652   YZ=             -0.2574
 Octapole moment (field-independent basis, Debye-Ang**2):
  XXX=            -15.4179  YYY=            -13.9653  ZZZ=             -8.0075  XYY=             -3.1167
  XXY=             -9.9716  XXZ=             -4.8177  XZZ=             -2.5559  YZZ=             -3.6801
  YYZ=             -2.3581  XYZ=             -0.0483
 Hexadecapole moment (field-independent basis, Debye-Ang**3):
 XXXX=           -305.0489 YYYY=           -101.5988 ZZZZ=            -90.2169 XXXY=             -3.8514
 XXXZ=             18.6376 YYYX=            -14.8167 YYYZ=              0.9121 ZZZX=              9.6802
 ZZZY=              1.3348 XXYY=            -64.6952 XXZZ=            -64.3545 YYZZ=            -30.3802
 XXYZ=             -5.3086 YYXZ=              5.5400 ZZXY=             -7.8629
 N-N= 1.119394837837D+02 E-N=-6.042912789500D+02  KE= 1.624836774266D+02
                          Isotropic Fermi Contact Couplings
        Atom                 a.u.       MegaHertz       Gauss      10(-4) cm-1
     1  N(14)              0.00000       0.00000       0.00000       0.00000
     2  B(11)              0.00000       0.00000       0.00000       0.00000
     3  N(14)             -0.00000      -0.00000      -0.00000      -0.00000
     4  B(11)              0.00000       0.00000       0.00000       0.00000
     5  H(1)               0.00000       0.00000       0.00000       0.00000
     6  H(1)               0.00000       0.00000       0.00000       0.00000
     7  H(1)              -0.00000      -0.00000      -0.00000      -0.00000
     8  H(1)              -0.00000      -0.00000      -0.00000      -0.00000
     9  H(1)              -0.00000      -0.00000      -0.00000      -0.00000
    10  H(1)               0.00000       0.00000       0.00000       0.00000
    11  H(1)               0.00000       0.00000       0.00000       0.00000
    12  H(1)               0.00000       0.00000       0.00000       0.00000
 --------------------------------------------------------
       Center         ----  Spin Dipole Couplings  ----
                      3XX-RR        3YY-RR        3ZZ-RR
 --------------------------------------------------------
     1   Atom        0.000000      0.000000      0.000000
     2   Atom        0.000000      0.000000      0.000000
     3   Atom        0.000000      0.000000      0.000000
     4   Atom        0.000000      0.000000      0.000000
     5   Atom        0.000000      0.000000      0.000000
     6   Atom        0.000000      0.000000      0.000000
     7   Atom        0.000000      0.000000      0.000000
     8   Atom        0.000000      0.000000      0.000000
     9   Atom        0.000000      0.000000      0.000000
    10   Atom        0.000000      0.000000      0.000000
    11   Atom        0.000000      0.000000      0.000000
    12   Atom        0.000000      0.000000      0.000000
 --------------------------------------------------------
                        XY            XZ            YZ
 --------------------------------------------------------
     1   Atom        0.000000      0.000000      0.000000
     2   Atom        0.000000      0.000000      0.000000
     3   Atom        0.000000      0.000000      0.000000
     4   Atom        0.000000      0.000000      0.000000
     5   Atom        0.000000      0.000000      0.000000
     6   Atom        0.000000      0.000000      0.000000
     7   Atom        0.000000      0.000000      0.000000
     8   Atom        0.000000      0.000000      0.000000
     9   Atom        0.000000      0.000000      0.000000
    10   Atom        0.000000      0.000000      0.000000
    11   Atom        0.000000      0.000000      0.000000
    12   Atom        0.000000      0.000000      0.000000
 --------------------------------------------------------


 ---------------------------------------------------------------------------------
              Anisotropic Spin Dipole Couplings in Principal Axis System
 ---------------------------------------------------------------------------------

       Atom             a.u.   MegaHertz   Gauss  10(-4) cm-1        Axes

              Baa     0.0000     0.000     0.000     0.000  1.0000  0.0000  0.0000
     1 N(14)  Bbb     0.0000     0.000     0.000     0.000 -0.0000  1.0000  0.0000
              Bcc     0.0000     0.000     0.000     0.000  0.0000  0.0000  1.0000
 
              Baa     0.0000     0.000     0.000     0.000  1.0000  0.0000  0.0000
     2 B(11)  Bbb     0.0000     0.000     0.000     0.000 -0.0000  1.0000  0.0000
              Bcc     0.0000     0.000     0.000     0.000  0.0000  0.0000  1.0000
 
              Baa     0.0000     0.000     0.000     0.000  1.0000  0.0000  0.0000
     3 N(14)  Bbb     0.0000     0.000     0.000     0.000 -0.0000  1.0000  0.0000
              Bcc     0.0000     0.000     0.000     0.000  0.0000  0.0000  1.0000
 
              Baa     0.0000     0.000     0.000     0.000  1.0000  0.0000  0.0000
     4 B(11)  Bbb     0.0000     0.000     0.000     0.000 -0.0000  1.0000  0.0000
              Bcc     0.0000     0.000     0.000     0.000  0.0000  0.0000  1.0000
 
              Baa     0.0000     0.000     0.000     0.000  1.0000  0.0000  0.0000
     5 H(1)   Bbb     0.0000     0.000     0.000     0.000 -0.0000  1.0000  0.0000
              Bcc     0.0000     0.000     0.000     0.000  0.0000  0.0000  1.0000
 
              Baa     0.0000     0.000     0.000     0.000  1.0000  0.0000  0.0000
     6 H(1)   Bbb     0.0000     0.000     0.000     0.000 -0.0000  1.0000  0.0000
              Bcc     0.0000     0.000     0.000     0.000  0.0000  0.0000  1.0000
 
              Baa     0.0000     0.000     0.000     0.000  1.0000  0.0000  0.0000
     7 H(1)   Bbb     0.0000     0.000     0.000     0.000 -0.0000  1.0000  0.0000
              Bcc     0.0000     0.000     0.000     0.000  0.0000  0.0000  1.0000
 
              Baa     0.0000     0.000     0.000     0.000  1.0000  0.0000  0.0000
     8 H(1)   Bbb     0.0000     0.000     0.000     0.000 -0.0000  1.0000  0.0000
              Bcc     0.0000     0.000     0.000     0.000  0.0000  0.0000  1.0000
 
              Baa     0.0000     0.000     0.000     0.000  1.0000  0.0000  0.0000
     9 H(1)   Bbb     0.0000     0.000     0.000     0.000 -0.0000  1.0000  0.0000
              Bcc     0.0000     0.000     0.000     0.000  0.0000  0.0000  1.0000
 
              Baa     0.0000     0.000     0.000     0.000  1.0000  0.0000  0.0000
    10 H(1)   Bbb     0.0000     0.000     0.000     0.000 -0.0000  1.0000  0.0000
              Bcc     0.0000     0.000     0.000     0.000  0.0000  0.0000  1.0000
 
              Baa     0.0000     0.000     0.000     0.000  1.0000  0.0000  0.0000
    11 H(1)   Bbb     0.0000     0.000     0.000     0.000 -0.0000  1.0000  0.0000
              Bcc     0.0000     0.000     0.000     0.000  0.0000  0.0000  1.0000
 
              Baa     0.0000     0.000     0.000     0.000  1.0000  0.0000  0.0000
    12 H(1)   Bbb     0.0000     0.000     0.000     0.000 -0.0000  1.0000  0.0000
              Bcc     0.0000     0.000     0.000     0.000  0.0000  0.0000  1.0000
 

 ---------------------------------------------------------------------------------

 Calling FoFJK, ICntrl=      2127 FMM=F ISym2X=0 I1Cent= 0 IOpClX= 1 NMat=1 NMatS=1 NMatT=0.
 ***** Axes restored to original set *****
 -------------------------------------------------------------------
 Center     Atomic                   Forces (Hartrees/Bohr)
 Number     Number              X              Y              Z
 -------------------------------------------------------------------
      1        7           0.003375744   -0.004751797   -0.003238915
      2        5           0.004136645    0.001804661   -0.002020739
      3        7          -0.001190127    0.000429342    0.000130776
      4        5          -0.007543153   -0.003440787    0.004672939
      5        1          -0.000417828   -0.000758260    0.000452407
      6        1           0.000386430   -0.000783402    0.000669055
      7        1           0.000128301   -0.000276431   -0.000510590
      8        1          -0.000453547    0.001303691   -0.000730429
      9        1           0.001175572    0.001750523    0.002286093
     10        1           0.000958471    0.000894863   -0.000207917
     11        1          -0.000446160    0.002019956   -0.002280206
     12        1          -0.000110348    0.001807640    0.000777525
 -------------------------------------------------------------------
 Cartesian Forces:  Max     0.007543153 RMS     0.002302569

 GradGradGradGradGradGradGradGradGradGradGradGradGradGradGradGradGradGrad
 Berny optimization.
 FormGI is forming the generalized inverse of G from B-inverse, IUseBI=4.
 Internal  Forces:  Max     0.018565036 RMS     0.003721534
 Search for a local minimum.
 Step number   1 out of a maximum of   52
 All quantities printed in internal units (Hartrees-Bohrs-Radians)
 Mixed Optimization -- RFO/linear search
 Second derivative matrix not updated -- first step.
 ITU=  0
     Eigenvalues ---    0.00230   0.00230   0.01832   0.01926   0.01968
     Eigenvalues ---    0.02066   0.02067   0.04952   0.05315   0.08821
     Eigenvalues ---    0.12108   0.12551   0.15537   0.16000   0.16000
     Eigenvalues ---    0.16000   0.16000   0.16000   0.16000   0.24254
     Eigenvalues ---    0.24625   0.24933   0.25000   0.25108   0.42120
     Eigenvalues ---    0.43728   0.45597   0.45864   0.46207   0.46210
 RFO step:  Lambda=-4.43233029D-03 EMin= 2.30000000D-03
 Linear search not attempted -- first point.
 Iteration  1 RMS(Cart)=  0.23392513 RMS(Int)=  0.00710850
 Iteration  2 RMS(Cart)=  0.01145199 RMS(Int)=  0.00016499
 Iteration  3 RMS(Cart)=  0.00003988 RMS(Int)=  0.00016373
 Iteration  4 RMS(Cart)=  0.00000001 RMS(Int)=  0.00016373
 Variable       Old X    -DE/DX   Delta X   Delta X   Delta X     New X
                                 (Linear)    (Quad)   (Total)
    R1        2.68771   0.00109   0.00000   0.00256   0.00256   2.69027
    R2        1.90986  -0.00149   0.00000  -0.00321  -0.00321   1.90665
    R3        1.91288  -0.00309   0.00000  -0.00671  -0.00671   1.90617
    R4        2.26080  -0.00106   0.00000  -0.00418  -0.00418   2.25662
    R5        2.25634  -0.00040   0.00000  -0.00157  -0.00157   2.25477
    R6        3.54724   0.00917   0.00000   0.15927   0.15927   3.70651
    R7        2.66781   0.00016   0.00000   0.00037   0.00037   2.66818
    R8        1.90595  -0.00077   0.00000  -0.00165  -0.00165   1.90430
    R9        1.90599  -0.00129   0.00000  -0.00277  -0.00277   1.90321
   R10        2.26872  -0.00306   0.00000  -0.01221  -0.01221   2.25651
   R11        2.27844   0.00453   0.00000   0.01835   0.01835   2.29680
    A1        2.14992  -0.00039   0.00000  -0.00222  -0.00222   2.14770
    A2        2.14579  -0.00012   0.00000  -0.00056  -0.00056   2.14523
    A3        1.97890   0.00051   0.00000   0.00326   0.00325   1.98215
    A4        2.07373  -0.00004   0.00000  -0.00055  -0.00115   2.07258
    A5        2.07167  -0.00095   0.00000  -0.00943  -0.00996   2.06172
    A6        1.73527   0.00856   0.00000   0.06334   0.06336   1.79863
    A7        2.11495   0.00033   0.00000  -0.00181  -0.00222   2.11273
    A8        1.62628  -0.00294   0.00000  -0.00629  -0.00644   1.61984
    A9        1.55188  -0.00262   0.00000  -0.00477  -0.00456   1.54732
   A10        2.14430   0.00067   0.00000   0.00408   0.00408   2.14839
   A11        2.15025  -0.00025   0.00000  -0.00149  -0.00149   2.14876
   A12        1.98842  -0.00042   0.00000  -0.00253  -0.00253   1.98589
   A13        2.11389  -0.00035   0.00000  -0.00556  -0.00573   2.10817
   A14        2.05612  -0.00008   0.00000  -0.00352  -0.00368   2.05244
   A15        2.05203   0.00018   0.00000  -0.00182  -0.00200   2.05004
   A16        1.65703   0.01857   0.00000   0.07297   0.07297   1.72999
    D1        2.94249  -0.00151   0.00000  -0.02730  -0.02729   2.91520
    D2        0.02604   0.00160   0.00000   0.03017   0.03001   0.05605
    D3       -1.61381   0.00003   0.00000   0.00213   0.00229  -1.61152
    D4       -0.04930  -0.00162   0.00000  -0.03172  -0.03171  -0.08101
    D5       -2.96574   0.00149   0.00000   0.02574   0.02558  -2.94016
    D6        1.67759  -0.00007   0.00000  -0.00229  -0.00214   1.67546
    D7       -0.22216  -0.00146   0.00000  -0.14786  -0.14784  -0.37000
    D8        1.87057  -0.00079   0.00000  -0.13972  -0.13956   1.73101
    D9       -2.29785  -0.00063   0.00000  -0.14186  -0.14205  -2.43989
   D10        2.95639  -0.00050   0.00000  -0.02212  -0.02209   2.93430
   D11        0.19220   0.00021   0.00000   0.01053   0.01050   0.20270
   D12       -0.16194  -0.00059   0.00000  -0.02566  -0.02562  -0.18756
   D13       -2.92612   0.00012   0.00000   0.00700   0.00697  -2.91915
   D14       -1.75839  -0.00128   0.00000  -0.14659  -0.14660  -1.90498
   D15        1.74709  -0.00048   0.00000  -0.11430  -0.11430   1.63280
         Item               Value     Threshold  Converged?
 Maximum Force            0.018565     0.000450     NO 
 RMS     Force            0.003722     0.000300     NO 
 Maximum Displacement     0.614951     0.001800     NO 
 RMS     Displacement     0.232948     0.001200     NO 
 Predicted change in Energy=-2.516618D-03
 GradGradGradGradGradGradGradGradGradGradGradGradGradGradGradGradGradGrad

                          Input orientation:                          
 ---------------------------------------------------------------------
 Center     Atomic      Atomic             Coordinates (Angstroms)
 Number     Number       Type             X           Y           Z
 ---------------------------------------------------------------------
      1          7           0        1.409498   -0.764395   -0.160582
      2          5           0        1.441796    0.658759   -0.178187
      3          7           0       -1.932348    0.135264   -0.212235
      4          5           0       -0.815903    0.116690    0.651931
      5          1           0       -2.130303    0.899060   -0.839060
      6          1           0        1.097470    1.228877   -1.169351
      7          1           0        2.075069    1.217507    0.664682
      8          1           0        1.856668   -1.316176    0.556054
      9          1           0        1.044578   -1.313822   -0.923762
     10          1           0       -2.613342   -0.605911   -0.247355
     11          1           0       -0.729368   -0.697278    1.521314
     12          1           0       -0.192335    1.150976    0.788471
 ---------------------------------------------------------------------
                    Distance matrix (angstroms):
                    1          2          3          4          5
     1  N    0.000000
     2  B    1.423629   0.000000
     3  N    3.461212   3.414683   0.000000
     4  B    2.527626   2.465794   1.411941   0.000000
     5  H    3.969585   3.640658   1.007710   2.136072   0.000000
     6  H    2.255684   1.194153   3.360336   2.866186   3.261348
     7  H    2.247662   1.193173   4.242597   3.093490   4.477477
     8  H    1.008955   2.147463   4.129600   3.033963   4.769650
     9  H    1.008702   2.145865   3.386475   2.826757   3.870903
    10  H    4.026895   4.248332   1.007138   2.135803   1.687714
    11  H    2.721768   3.072636   2.268366   1.194094   3.175261
    12  H    2.671183   1.961400   2.249607   1.215413   2.543234
                    6          7          8          9         10
     6  H    0.000000
     7  H    2.078342   0.000000
     8  H    3.167128   2.545398   0.000000
     9  H    2.555078   3.161122   1.688002   0.000000
    10  H    4.241067   5.112520   4.596840   3.786692   0.000000
    11  H    3.779826   3.502155   2.828842   3.083084   2.585710
    12  H    2.345791   2.271755   3.215474   3.246063   3.165575
                   11         12
    11  H    0.000000
    12  H    2.059492   0.000000
 Stoichiometry    B2H8N2
 Framework group  C1[X(B2H8N2)]
 Deg. of freedom    30
 Full point group                 C1      NOp   1
 Largest Abelian subgroup         C1      NOp   1
 Largest concise Abelian subgroup C1      NOp   1
                         Standard orientation:                         
 ---------------------------------------------------------------------
 Center     Atomic      Atomic             Coordinates (Angstroms)
 Number     Number       Type             X           Y           Z
 ---------------------------------------------------------------------
      1          7           0        1.475400   -0.629137   -0.194372
      2          5           0        1.388598    0.787480   -0.083107
      3          7           0       -1.928504   -0.004755   -0.254164
      4          5           0       -0.831188   -0.011248    0.634337
      5          1           0       -2.177758    0.794607   -0.814853
      6          1           0        1.016730    1.416113   -1.027849
      7          1           0        1.956536    1.316388    0.823185
      8          1           0        1.953451   -1.205963    0.481446
      9          1           0        1.172513   -1.134171   -1.013323
     10          1           0       -2.544161   -0.792757   -0.373939
     11          1           0       -0.693380   -0.891776    1.429031
     12          1           0       -0.299261    1.053637    0.879901
 ---------------------------------------------------------------------
 Rotational constants (GHZ):          14.5873366           3.4617640           3.2487300
 Standard basis: 6-31G(d,p) (6D, 7F)
 There are   100 symmetry adapted cartesian basis functions of A   symmetry.
 There are   100 symmetry adapted basis functions of A   symmetry.
   100 basis functions,   168 primitive gaussians,   100 cartesian basis functions
    16 alpha electrons       16 beta electrons
       nuclear repulsion energy       107.5665628318 Hartrees.
 NAtoms=   12 NActive=   12 NUniq=   12 SFac= 1.00D+00 NAtFMM=   60 NAOKFM=F Big=F
 Integral buffers will be    131072 words long.
 Raffenetti 2 integral format.
 Two-electron integral symmetry is turned on.
 One-electron integrals computed using PRISM.
 NBasis=   100 RedAO= T EigKep=  8.51D-03  NBF=   100
 NBsUse=   100 1.00D-06 EigRej= -1.00D+00 NBFU=   100
 Initial guess from the checkpoint file:  "/scratch/1311822/Gau-26020.chk"
 B after Tr=    -0.000000   -0.000000   -0.000000
         Rot=    0.997217   -0.066013    0.006143   -0.034099 Ang=  -8.55 deg.
 Initial guess <Sx>= 0.0000 <Sy>= 0.0000 <Sz>= 0.0000 <S**2>=-0.0000 S=-0.0000
 ExpMin= 1.27D-01 ExpMax= 4.17D+03 ExpMxC= 6.27D+02 IAcc=2 IRadAn=         4 AccDes= 0.00D+00
 Harris functional with IExCor=  402 and IRadAn=       4 diagonalized for initial guess.
 HarFok:  IExCor=  402 AccDes= 0.00D+00 IRadAn=         4 IDoV= 1 UseB2=F ITyADJ=14
 ICtDFT=  3500011 ScaDFX=  1.000000  1.000000  1.000000  1.000000
 FoFCou: FMM=F IPFlag=           0 FMFlag=      100000 FMFlg1=           0
         NFxFlg=           0 DoJE=T BraDBF=F KetDBF=T FulRan=T
         wScrn=  0.000000 ICntrl=       500 IOpCl=  0 I1Cent=   200000004 NGrid=           0
         NMat0=    1 NMatS0=      1 NMatT0=    0 NMatD0=    1 NMtDS0=    0 NMtDT0=    0
 Petite list used in FoFCou.
 Keep R1 and R2 ints in memory in canonical form, NReq=29209870.
 Requested convergence on RMS density matrix=1.00D-08 within1024 cycles.
 Requested convergence on MAX density matrix=1.00D-06.
 Requested convergence on             energy=1.00D-06.
 No special actions if energy rises.
 Integral accuracy reduced to 1.0D-05 until final iterations.
 Initial convergence to 1.0D-05 achieved.  Increase integral accuracy.
 SCF Done:  E(UB3LYP) =  -164.084106512     A.U. after   11 cycles
            NFock= 11  Conv=0.79D-08     -V/T= 2.0102
 <Sx>= 0.0000 <Sy>= 0.0000 <Sz>= 0.0000 <S**2>=-0.0000 S=-0.0000
 <L.S>= 0.000000000000E+00
 Annihilation of the first spin contaminant:
 S**2 before annihilation    -0.0000,   after     0.0000
 Calling FoFJK, ICntrl=      2127 FMM=F ISym2X=0 I1Cent= 0 IOpClX= 1 NMat=1 NMatS=1 NMatT=0.
 ***** Axes restored to original set *****
 -------------------------------------------------------------------
 Center     Atomic                   Forces (Hartrees/Bohr)
 Number     Number              X              Y              Z
 -------------------------------------------------------------------
      1        7           0.001668266    0.006941660   -0.005176712
      2        5           0.009928393   -0.008785227   -0.004872619
      3        7           0.012214098   -0.002392179    0.003337637
      4        5          -0.017417194    0.011759391    0.011758616
      5        1           0.000651047   -0.000028518   -0.001208621
      6        1          -0.001968839    0.000091620    0.000392760
      7        1          -0.002240850    0.000931813    0.001687915
      8        1          -0.002422506    0.000378436    0.001189232
      9        1           0.000007400   -0.000225347   -0.000049603
     10        1           0.000050592   -0.001339169   -0.000721219
     11        1           0.001057385   -0.002542209   -0.003575004
     12        1          -0.001527791   -0.004790271   -0.002762382
 -------------------------------------------------------------------
 Cartesian Forces:  Max     0.017417194 RMS     0.005530092

 GradGradGradGradGradGradGradGradGradGradGradGradGradGradGradGradGradGrad
 Berny optimization.
 Using GEDIIS/GDIIS optimizer.
 FormGI is forming the generalized inverse of G from B-inverse, IUseBI=4.
 Internal  Forces:  Max     0.011124011 RMS     0.003814894
 Search for a local minimum.
 Step number   2 out of a maximum of   52
 All quantities printed in internal units (Hartrees-Bohrs-Radians)
 Mixed Optimization -- RFO/linear search
 Update second derivatives using D2CorX and points    1    2
 DE= -3.03D-04 DEPred=-2.52D-03 R= 1.21D-01
 Trust test= 1.21D-01 RLast= 3.69D-01 DXMaxT set to 3.00D-01
 ITU=  0  0
 Use linear search instead of GDIIS.
     Eigenvalues ---    0.00214   0.00635   0.01301   0.01927   0.01969
     Eigenvalues ---    0.02063   0.02081   0.04337   0.06554   0.08430
     Eigenvalues ---    0.12203   0.12913   0.14096   0.15501   0.16000
     Eigenvalues ---    0.16000   0.16000   0.16000   0.16122   0.20903
     Eigenvalues ---    0.24631   0.24887   0.25044   0.25199   0.42522
     Eigenvalues ---    0.45296   0.45838   0.46077   0.46210   0.47942
 RFO step:  Lambda=-1.10351057D-02 EMin= 2.14225864D-03
 Quartic linear search produced a step of -0.53751.
 Maximum step size (   0.300) exceeded in Quadratic search.
    -- Step size scaled by   0.510
 Iteration  1 RMS(Cart)=  0.17868695 RMS(Int)=  0.01340975
 Iteration  2 RMS(Cart)=  0.02416379 RMS(Int)=  0.00022098
 Iteration  3 RMS(Cart)=  0.00033774 RMS(Int)=  0.00013754
 Iteration  4 RMS(Cart)=  0.00000011 RMS(Int)=  0.00013754
 Variable       Old X    -DE/DX   Delta X   Delta X   Delta X     New X
                                 (Linear)    (Quad)   (Total)
    R1        2.69027  -0.00712  -0.00138   0.00052  -0.00086   2.68941
    R2        1.90665  -0.00044   0.00172  -0.00566  -0.00394   1.90271
    R3        1.90617   0.00016   0.00361  -0.01131  -0.00771   1.89846
    R4        2.25662   0.00029   0.00225  -0.00667  -0.00442   2.25220
    R5        2.25477   0.00044   0.00084  -0.00222  -0.00137   2.25340
    R6        3.70651   0.00768  -0.08561   0.24687   0.16126   3.86777
    R7        2.66818  -0.01112  -0.00020  -0.00512  -0.00532   2.66286
    R8        1.90430   0.00060   0.00089  -0.00251  -0.00162   1.90267
    R9        1.90321   0.00098   0.00149  -0.00423  -0.00274   1.90047
   R10        2.25651  -0.00079   0.00656  -0.02094  -0.01437   2.24214
   R11        2.29680  -0.00396  -0.00987   0.02676   0.01689   2.31369
    A1        2.14770  -0.00016   0.00119  -0.00357  -0.00240   2.14530
    A2        2.14523   0.00032   0.00030  -0.00025   0.00003   2.14526
    A3        1.98215   0.00000  -0.00175   0.00546   0.00369   1.98584
    A4        2.07258  -0.00251   0.00062  -0.00606  -0.00534   2.06723
    A5        2.06172   0.00299   0.00535  -0.01023  -0.00475   2.05697
    A6        1.79863   0.00307  -0.03406   0.09998   0.06593   1.86456
    A7        2.11273   0.00018   0.00119  -0.00133  -0.00019   2.11254
    A8        1.61984  -0.00119   0.00346  -0.01790  -0.01437   1.60547
    A9        1.54732  -0.00402   0.00245  -0.01925  -0.01684   1.53048
   A10        2.14839  -0.00004  -0.00219   0.00656   0.00434   2.15273
   A11        2.14876  -0.00014   0.00080  -0.00254  -0.00177   2.14699
   A12        1.98589   0.00020   0.00136  -0.00376  -0.00243   1.98346
   A13        2.10817  -0.00041   0.00308   0.00067   0.00327   2.11143
   A14        2.05244   0.00266   0.00198   0.00706   0.00858   2.06102
   A15        2.05004   0.00121   0.00107   0.00759   0.00820   2.05824
   A16        1.72999   0.00683  -0.03922   0.12703   0.08781   1.81780
    D1        2.91520   0.00242   0.01467  -0.02221  -0.00753   2.90767
    D2        0.05605  -0.00013  -0.01613   0.04513   0.02904   0.08508
    D3       -1.61152   0.00200  -0.00123   0.01461   0.01333  -1.59819
    D4       -0.08101   0.00101   0.01704  -0.03718  -0.02012  -0.10113
    D5       -2.94016  -0.00154  -0.01375   0.03016   0.01644  -2.92372
    D6        1.67546   0.00059   0.00115  -0.00036   0.00074   1.67619
    D7       -0.37000   0.00457   0.07946   0.05450   0.13389  -0.23611
    D8        1.73101   0.00219   0.07501   0.06213   0.13701   1.86802
    D9       -2.43989   0.00219   0.07635   0.05993   0.13649  -2.30340
   D10        2.93430   0.00579   0.01187   0.02291   0.03480   2.96910
   D11        0.20270  -0.00383  -0.00565  -0.02012  -0.02578   0.17693
   D12       -0.18756   0.00389   0.01377   0.00555   0.01933  -0.16823
   D13       -2.91915  -0.00573  -0.00375  -0.03748  -0.04124  -2.96040
   D14       -1.90498   0.01085   0.07880   0.13764   0.21656  -1.68842
   D15        1.63280   0.00195   0.06144   0.09772   0.15903   1.79183
         Item               Value     Threshold  Converged?
 Maximum Force            0.011124     0.000450     NO 
 RMS     Force            0.003815     0.000300     NO 
 Maximum Displacement     0.511827     0.001800     NO 
 RMS     Displacement     0.191966     0.001200     NO 
 Predicted change in Energy=-5.015172D-03
 GradGradGradGradGradGradGradGradGradGradGradGradGradGradGradGradGradGrad

                          Input orientation:                          
 ---------------------------------------------------------------------
 Center     Atomic      Atomic             Coordinates (Angstroms)
 Number     Number       Type             X           Y           Z
 ---------------------------------------------------------------------
      1          7           0        1.448853   -0.768888   -0.291516
      2          5           0        1.469449    0.649712   -0.179358
      3          7           0       -1.911711    0.071443   -0.195303
      4          5           0       -0.923635    0.179903    0.803485
      5          1           0       -1.981248    0.703550   -0.975915
      6          1           0        1.164621    1.298882   -1.131238
      7          1           0        2.092067    1.128704    0.717772
      8          1           0        1.873497   -1.377753    0.388741
      9          1           0        1.109062   -1.247130   -1.107048
     10          1           0       -2.617428   -0.645050   -0.192393
     11          1           0       -0.980412   -0.473586    1.792161
     12          1           0       -0.231635    1.189761    0.822531
 ---------------------------------------------------------------------
                    Distance matrix (angstroms):
                    1          2          3          4          5
     1  N    0.000000
     2  B    1.423176   0.000000
     3  N    3.465372   3.430290   0.000000
     4  B    2.779916   2.629364   1.409125   0.000000
     5  H    3.795006   3.541851   1.006851   2.135185   0.000000
     6  H    2.249799   1.191812   3.441859   3.058771   3.205470
     7  H    2.243489   1.192447   4.240489   3.162599   4.431842
     8  H    1.006870   2.143970   4.095006   3.228352   4.588373
     9  H    1.004623   2.142078   3.419793   3.133436   3.656824
    10  H    4.069374   4.287090   1.005688   2.131022   1.684445
    11  H    3.214070   3.339237   2.261501   1.186487   3.170105
    12  H    2.810951   2.046734   2.260371   1.224353   2.555769
                    6          7          8          9         10
     6  H    0.000000
     7  H    2.075561   0.000000
     8  H    3.158673   2.537393   0.000000
     9  H    2.546733   3.152912   1.684876   0.000000
    10  H    4.354790   5.114094   4.587263   3.884048   0.000000
    11  H    4.035972   3.627916   3.306343   3.656459   2.578309
    12  H    2.403882   2.326864   3.348415   3.385142   3.176258
                   11         12
    11  H    0.000000
    12  H    2.065810   0.000000
 Stoichiometry    B2H8N2
 Framework group  C1[X(B2H8N2)]
 Deg. of freedom    30
 Full point group                 C1      NOp   1
 Largest Abelian subgroup         C1      NOp   1
 Largest concise Abelian subgroup C1      NOp   1
                         Standard orientation:                         
 ---------------------------------------------------------------------
 Center     Atomic      Atomic             Coordinates (Angstroms)
 Number     Number       Type             X           Y           Z
 ---------------------------------------------------------------------
      1          7           0        1.521049   -0.679725    0.014024
      2          5           0        1.431086    0.711824   -0.270453
      3          7           0       -1.887972   -0.153321   -0.318054
      4          5           0       -0.992972    0.311432    0.666127
      5          1           0       -1.940100    0.234070   -1.245934
      6          1           0        1.157454    1.047715   -1.380732
      7          1           0        1.944326    1.470844    0.492701
      8          1           0        1.932578   -1.039879    0.859435
      9          1           0        1.282450   -1.390212   -0.654964
     10          1           0       -2.538597   -0.903061   -0.156857
     11          1           0       -1.081490   -0.051412    1.792298
     12          1           0       -0.378726    1.346976    0.443890
 ---------------------------------------------------------------------
 Rotational constants (GHZ):          13.3295669           3.2950862           3.1501592
 Standard basis: 6-31G(d,p) (6D, 7F)
 There are   100 symmetry adapted cartesian basis functions of A   symmetry.
 There are   100 symmetry adapted basis functions of A   symmetry.
   100 basis functions,   168 primitive gaussians,   100 cartesian basis functions
    16 alpha electrons       16 beta electrons
       nuclear repulsion energy       105.9271467352 Hartrees.
 NAtoms=   12 NActive=   12 NUniq=   12 SFac= 1.00D+00 NAtFMM=   60 NAOKFM=F Big=F
 Integral buffers will be    131072 words long.
 Raffenetti 2 integral format.
 Two-electron integral symmetry is turned on.
 One-electron integrals computed using PRISM.
 NBasis=   100 RedAO= T EigKep=  8.89D-03  NBF=   100
 NBsUse=   100 1.00D-06 EigRej= -1.00D+00 NBFU=   100
 Initial guess from the checkpoint file:  "/scratch/1311822/Gau-26020.chk"
 B after Tr=     0.000000    0.000000   -0.000000
         Rot=    0.984012    0.176730    0.022034    0.000721 Ang=  20.52 deg.
 Initial guess <Sx>= 0.0000 <Sy>= 0.0000 <Sz>= 0.0000 <S**2>=-0.0000 S=-0.0000
 ExpMin= 1.27D-01 ExpMax= 4.17D+03 ExpMxC= 6.27D+02 IAcc=2 IRadAn=         4 AccDes= 0.00D+00
 Harris functional with IExCor=  402 and IRadAn=       4 diagonalized for initial guess.
 HarFok:  IExCor=  402 AccDes= 0.00D+00 IRadAn=         4 IDoV= 1 UseB2=F ITyADJ=14
 ICtDFT=  3500011 ScaDFX=  1.000000  1.000000  1.000000  1.000000
 FoFCou: FMM=F IPFlag=           0 FMFlag=      100000 FMFlg1=           0
         NFxFlg=           0 DoJE=T BraDBF=F KetDBF=T FulRan=T
         wScrn=  0.000000 ICntrl=       500 IOpCl=  0 I1Cent=   200000004 NGrid=           0
         NMat0=    1 NMatS0=      1 NMatT0=    0 NMatD0=    1 NMtDS0=    0 NMtDT0=    0
 Petite list used in FoFCou.
 Keep R1 and R2 ints in memory in canonical form, NReq=29209870.
 Requested convergence on RMS density matrix=1.00D-08 within1024 cycles.
 Requested convergence on MAX density matrix=1.00D-06.
 Requested convergence on             energy=1.00D-06.
 No special actions if energy rises.
 Integral accuracy reduced to 1.0D-05 until final iterations.
 Initial convergence to 1.0D-05 achieved.  Increase integral accuracy.
 SCF Done:  E(UB3LYP) =  -164.086565973     A.U. after   11 cycles
            NFock= 11  Conv=0.70D-08     -V/T= 2.0103
 <Sx>= 0.0000 <Sy>= 0.0000 <Sz>= 0.0000 <S**2>=-0.0000 S=-0.0000
 <L.S>= 0.000000000000E+00
 Annihilation of the first spin contaminant:
 S**2 before annihilation    -0.0000,   after    -0.0000
 Calling FoFJK, ICntrl=      2127 FMM=F ISym2X=0 I1Cent= 0 IOpClX= 1 NMat=1 NMatS=1 NMatT=0.
 ***** Axes restored to original set *****
 -------------------------------------------------------------------
 Center     Atomic                   Forces (Hartrees/Bohr)
 Number     Number              X              Y              Z
 -------------------------------------------------------------------
      1        7           0.000819322    0.013613618    0.002496742
      2        5           0.015049548   -0.014161335   -0.006593117
      3        7           0.010963664   -0.001079475    0.008335384
      4        5          -0.014061385    0.021422181   -0.001740155
      5        1           0.000777371    0.001035379   -0.001282398
      6        1          -0.004923715    0.001224432    0.000286530
      7        1          -0.003290409    0.001213056    0.002785538
      8        1          -0.000663291   -0.000951455    0.001788592
      9        1          -0.002749263   -0.001926550   -0.002041980
     10        1          -0.001182958   -0.002577687   -0.000382876
     11        1           0.003654061   -0.007904207   -0.001033513
     12        1          -0.004392946   -0.009907956   -0.002618747
 -------------------------------------------------------------------
 Cartesian Forces:  Max     0.021422181 RMS     0.007055023

 GradGradGradGradGradGradGradGradGradGradGradGradGradGradGradGradGradGrad
 Berny optimization.
 Using GEDIIS/GDIIS optimizer.
 FormGI is forming the generalized inverse of G from B-inverse, IUseBI=4.
 Internal  Forces:  Max     0.011928404 RMS     0.003881874
 Search for a local minimum.
 Step number   3 out of a maximum of   52
 All quantities printed in internal units (Hartrees-Bohrs-Radians)
 Mixed Optimization -- RFO/linear search
 Update second derivatives using D2CorX and points    1    2    3
 DE= -2.46D-03 DEPred=-5.02D-03 R= 4.90D-01
 Trust test= 4.90D-01 RLast= 4.16D-01 DXMaxT set to 3.00D-01
 ITU=  0  0  0
 Use linear search instead of GDIIS.
     Eigenvalues ---    0.00221   0.00678   0.01879   0.01951   0.02056
     Eigenvalues ---    0.02064   0.03325   0.04328   0.07170   0.08017
     Eigenvalues ---    0.12379   0.13749   0.14152   0.15902   0.16000
     Eigenvalues ---    0.16000   0.16000   0.16045   0.16199   0.20190
     Eigenvalues ---    0.24644   0.24912   0.25101   0.27229   0.42799
     Eigenvalues ---    0.45225   0.45836   0.46107   0.46210   0.55183
 RFO step:  Lambda=-7.65827864D-03 EMin= 2.21470317D-03
 Quartic linear search produced a step of -0.02857.
 Maximum step size (   0.300) exceeded in Quadratic search.
    -- Step size scaled by   0.674
 Iteration  1 RMS(Cart)=  0.16301757 RMS(Int)=  0.00907949
 Iteration  2 RMS(Cart)=  0.01501080 RMS(Int)=  0.00195419
 Iteration  3 RMS(Cart)=  0.00006425 RMS(Int)=  0.00195356
 Iteration  4 RMS(Cart)=  0.00000014 RMS(Int)=  0.00195356
 Variable       Old X    -DE/DX   Delta X   Delta X   Delta X     New X
                                 (Linear)    (Quad)   (Total)
    R1        2.68941  -0.01084   0.00002  -0.01308  -0.01305   2.67636
    R2        1.90271   0.00150   0.00011  -0.00368  -0.00357   1.89914
    R3        1.89846   0.00350   0.00022  -0.00679  -0.00657   1.89189
    R4        2.25220   0.00170   0.00013  -0.00276  -0.00264   2.24956
    R5        2.25340   0.00087   0.00004  -0.00031  -0.00027   2.25312
    R6        3.86777   0.00441  -0.00461   0.25337   0.24876   4.11653
    R7        2.66286  -0.01193   0.00015  -0.01920  -0.01905   2.64381
    R8        1.90267   0.00159   0.00005  -0.00059  -0.00054   1.90213
    R9        1.90047   0.00267   0.00008  -0.00101  -0.00093   1.89954
   R10        2.24214   0.00332   0.00041  -0.01275  -0.01234   2.22980
   R11        2.31369  -0.00913  -0.00048   0.00580   0.00532   2.31901
    A1        2.14530  -0.00010   0.00007  -0.00286  -0.00304   2.14226
    A2        2.14526   0.00039  -0.00000   0.00181   0.00156   2.14681
    A3        1.98584  -0.00010  -0.00011   0.00564   0.00528   1.99112
    A4        2.06723   0.00110   0.00015  -0.00010   0.00033   2.06756
    A5        2.05697   0.00115   0.00014  -0.00286  -0.00240   2.05457
    A6        1.86456  -0.00345  -0.00188   0.06804   0.06618   1.93075
    A7        2.11254  -0.00000   0.00001   0.00597   0.00536   2.11790
    A8        1.60547  -0.00197   0.00041  -0.03872  -0.03826   1.56720
    A9        1.53048  -0.00158   0.00048  -0.03665  -0.03602   1.49446
   A10        2.15273  -0.00078  -0.00012   0.00358   0.00330   2.15603
   A11        2.14699   0.00022   0.00005  -0.00170  -0.00181   2.14518
   A12        1.98346   0.00056   0.00007  -0.00176  -0.00185   1.98161
   A13        2.11143  -0.00122  -0.00009   0.01261   0.00526   2.11669
   A14        2.06102   0.00143  -0.00025   0.02549   0.01806   2.07909
   A15        2.05824   0.00260  -0.00023   0.02957   0.02216   2.08040
   A16        1.81780   0.00007  -0.00251   0.12109   0.11858   1.93638
    D1        2.90767   0.00465   0.00022   0.02962   0.02978   2.93746
    D2        0.08508  -0.00282  -0.00083   0.01850   0.01767   0.10276
    D3       -1.59819   0.00060  -0.00038   0.02458   0.02427  -1.57393
    D4       -0.10113   0.00290   0.00057  -0.01550  -0.01499  -0.11612
    D5       -2.92372  -0.00457  -0.00047  -0.02662  -0.02710  -2.95082
    D6        1.67619  -0.00115  -0.00002  -0.02054  -0.02051   1.65568
    D7       -0.23611  -0.00060  -0.00383  -0.05409  -0.05791  -0.29402
    D8        1.86802  -0.00091  -0.00391  -0.05369  -0.05853   1.80949
    D9       -2.30340  -0.00089  -0.00390  -0.04730  -0.05029  -2.35369
   D10        2.96910   0.00521  -0.00099   0.12007   0.11899   3.08809
   D11        0.17693  -0.00435   0.00074  -0.10328  -0.10245   0.07447
   D12       -0.16823   0.00396  -0.00055   0.08446   0.08383  -0.08440
   D13       -2.96040  -0.00560   0.00118  -0.13889  -0.13762  -3.09802
   D14       -1.68842   0.00232  -0.00619   0.00139  -0.00381  -1.69224
   D15        1.79183  -0.00618  -0.00454  -0.21166  -0.21719   1.57464
         Item               Value     Threshold  Converged?
 Maximum Force            0.011928     0.000450     NO 
 RMS     Force            0.003882     0.000300     NO 
 Maximum Displacement     0.488927     0.001800     NO 
 RMS     Displacement     0.175772     0.001200     NO 
 Predicted change in Energy=-4.226232D-03
 GradGradGradGradGradGradGradGradGradGradGradGradGradGradGradGradGradGrad

                          Input orientation:                          
 ---------------------------------------------------------------------
 Center     Atomic      Atomic             Coordinates (Angstroms)
 Number     Number       Type             X           Y           Z
 ---------------------------------------------------------------------
      1          7           0        1.660293   -0.804693   -0.307166
      2          5           0        1.551559    0.603789   -0.206335
      3          7           0       -2.088260    0.154144   -0.146835
      4          5           0       -1.084865    0.221004    0.825821
      5          1           0       -2.167062    0.805604   -0.910090
      6          1           0        1.204860    1.216229   -1.166444
      7          1           0        2.104641    1.138921    0.704335
      8          1           0        2.105279   -1.367293    0.396720
      9          1           0        1.367791   -1.317727   -1.115579
     10          1           0       -2.786411   -0.568875   -0.162472
     11          1           0       -1.060989   -0.531824    1.734106
     12          1           0       -0.295358    1.160271    0.805860
 ---------------------------------------------------------------------
                    Distance matrix (angstroms):
                    1          2          3          4          5
     1  N    0.000000
     2  B    1.416267   0.000000
     3  N    3.872561   3.667970   0.000000
     4  B    3.141912   2.857026   1.399046   0.000000
     5  H    4.195858   3.790006   1.006563   2.127509   0.000000
     6  H    2.242745   1.190417   3.607252   3.194125   3.406492
     7  H    2.235669   1.192302   4.390295   3.321186   4.578746
     8  H    1.004981   2.134349   4.493995   3.589406   4.968112
     9  H    1.001146   2.133710   3.879325   3.486007   4.128674
    10  H    4.455303   4.493890   1.005195   2.120351   1.682771
    11  H    3.412716   3.446786   2.250284   1.179959   3.162892
    12  H    2.987388   2.178374   2.265925   1.227168   2.563893
                    6          7          8          9         10
     6  H    0.000000
     7  H    2.077353   0.000000
     8  H    3.151003   2.525022   0.000000
     9  H    2.539698   3.144861   1.683269   0.000000
    10  H    4.486067   5.252647   4.987865   4.327422   0.000000
    11  H    4.074673   3.724652   3.537211   3.825876   2.564266
    12  H    2.478662   2.402240   3.509848   3.549432   3.183230
                   11         12
    11  H    0.000000
    12  H    2.076299   0.000000
 Stoichiometry    B2H8N2
 Framework group  C1[X(B2H8N2)]
 Deg. of freedom    30
 Full point group                 C1      NOp   1
 Largest Abelian subgroup         C1      NOp   1
 Largest concise Abelian subgroup C1      NOp   1
                         Standard orientation:                         
 ---------------------------------------------------------------------
 Center     Atomic      Atomic             Coordinates (Angstroms)
 Number     Number       Type             X           Y           Z
 ---------------------------------------------------------------------
      1          7           0        1.768455   -0.631875   -0.027744
      2          5           0        1.493403    0.744459   -0.217124
      3          7           0       -2.062251   -0.149511   -0.327321
      4          5           0       -1.169133    0.228146    0.681165
      5          1           0       -2.141126    0.330457   -1.208559
      6          1           0        1.172510    1.114854   -1.301987
      7          1           0        1.894419    1.508472    0.605710
      8          1           0        2.205199   -0.989516    0.803721
      9          1           0        1.613058   -1.321596   -0.736567
     10          1           0       -2.670287   -0.946034   -0.248205
     11          1           0       -1.146929   -0.330173    1.720439
     12          1           0       -0.491617    1.240210    0.530699
 ---------------------------------------------------------------------
 Rotational constants (GHZ):          13.7641953           2.7460367           2.6535504
 Standard basis: 6-31G(d,p) (6D, 7F)
 There are   100 symmetry adapted cartesian basis functions of A   symmetry.
 There are   100 symmetry adapted basis functions of A   symmetry.
   100 basis functions,   168 primitive gaussians,   100 cartesian basis functions
    16 alpha electrons       16 beta electrons
       nuclear repulsion energy       102.7032172431 Hartrees.
 NAtoms=   12 NActive=   12 NUniq=   12 SFac= 1.00D+00 NAtFMM=   60 NAOKFM=F Big=F
 Integral buffers will be    131072 words long.
 Raffenetti 2 integral format.
 Two-electron integral symmetry is turned on.
 One-electron integrals computed using PRISM.
 NBasis=   100 RedAO= T EigKep=  9.32D-03  NBF=   100
 NBsUse=   100 1.00D-06 EigRej= -1.00D+00 NBFU=   100
 Initial guess from the checkpoint file:  "/scratch/1311822/Gau-26020.chk"
 B after Tr=    -0.000000   -0.000000   -0.000000
         Rot=    0.999042   -0.039858    0.002445   -0.017882 Ang=  -5.02 deg.
 Initial guess <Sx>= 0.0000 <Sy>= 0.0000 <Sz>= 0.0000 <S**2>=-0.0000 S=-0.0000
 ExpMin= 1.27D-01 ExpMax= 4.17D+03 ExpMxC= 6.27D+02 IAcc=2 IRadAn=         4 AccDes= 0.00D+00
 Harris functional with IExCor=  402 and IRadAn=       4 diagonalized for initial guess.
 HarFok:  IExCor=  402 AccDes= 0.00D+00 IRadAn=         4 IDoV= 1 UseB2=F ITyADJ=14
 ICtDFT=  3500011 ScaDFX=  1.000000  1.000000  1.000000  1.000000
 FoFCou: FMM=F IPFlag=           0 FMFlag=      100000 FMFlg1=           0
         NFxFlg=           0 DoJE=T BraDBF=F KetDBF=T FulRan=T
         wScrn=  0.000000 ICntrl=       500 IOpCl=  0 I1Cent=   200000004 NGrid=           0
         NMat0=    1 NMatS0=      1 NMatT0=    0 NMatD0=    1 NMtDS0=    0 NMtDT0=    0
 Petite list used in FoFCou.
 Keep R1 and R2 ints in memory in canonical form, NReq=29209870.
 Requested convergence on RMS density matrix=1.00D-08 within1024 cycles.
 Requested convergence on MAX density matrix=1.00D-06.
 Requested convergence on             energy=1.00D-06.
 No special actions if energy rises.
 Integral accuracy reduced to 1.0D-05 until final iterations.
 Initial convergence to 1.0D-05 achieved.  Increase integral accuracy.
 SCF Done:  E(UB3LYP) =  -164.090400485     A.U. after   11 cycles
            NFock= 11  Conv=0.36D-08     -V/T= 2.0101
 <Sx>= 0.0000 <Sy>= 0.0000 <Sz>= 0.0000 <S**2>=-0.0000 S=-0.0000
 <L.S>= 0.000000000000E+00
 Annihilation of the first spin contaminant:
 S**2 before annihilation    -0.0000,   after     0.0000
 Calling FoFJK, ICntrl=      2127 FMM=F ISym2X=0 I1Cent= 0 IOpClX= 1 NMat=1 NMatS=1 NMatT=0.
 ***** Axes restored to original set *****
 -------------------------------------------------------------------
 Center     Atomic                   Forces (Hartrees/Bohr)
 Number     Number              X              Y              Z
 -------------------------------------------------------------------
      1        7          -0.001703202    0.017756358    0.003830945
      2        5           0.018866199   -0.013877601   -0.007140332
      3        7           0.008007926   -0.000742490    0.005889842
      4        5          -0.000080625    0.018437609   -0.004374944
      5        1           0.000704241    0.001603750   -0.001462178
      6        1          -0.005886235    0.001228181   -0.000080116
      7        1          -0.004212961    0.001248926    0.003299448
      8        1          -0.000227797   -0.002322738    0.002776094
      9        1          -0.003142440   -0.004102136   -0.004625876
     10        1          -0.002528461   -0.002557289   -0.000013845
     11        1          -0.000000382   -0.007117805    0.002821326
     12        1          -0.009796263   -0.009554765   -0.000920364
 -------------------------------------------------------------------
 Cartesian Forces:  Max     0.018866199 RMS     0.007038216

 GradGradGradGradGradGradGradGradGradGradGradGradGradGradGradGradGradGrad
 Berny optimization.
 Using GEDIIS/GDIIS optimizer.
 FormGI is forming the generalized inverse of G from B-inverse, IUseBI=4.
 Internal  Forces:  Max     0.011797818 RMS     0.003844019
 Search for a local minimum.
 Step number   4 out of a maximum of   52
 All quantities printed in internal units (Hartrees-Bohrs-Radians)
 Mixed Optimization -- RFO/linear search
 Update second derivatives using D2CorX and points    3    4
 DE= -3.83D-03 DEPred=-4.23D-03 R= 9.07D-01
 TightC=F SS=  1.41D+00  RLast= 4.42D-01 DXNew= 5.0454D-01 1.3250D+00
 Trust test= 9.07D-01 RLast= 4.42D-01 DXMaxT set to 5.05D-01
 ITU=  1  0  0  0
 Use linear search instead of GDIIS.
     Eigenvalues ---    0.00222   0.00938   0.01870   0.02006   0.02055
     Eigenvalues ---    0.02071   0.03699   0.04856   0.06364   0.07637
     Eigenvalues ---    0.12453   0.14002   0.14173   0.15994   0.16000
     Eigenvalues ---    0.16000   0.16010   0.16146   0.16201   0.20230
     Eigenvalues ---    0.24837   0.24911   0.25103   0.26041   0.42627
     Eigenvalues ---    0.45763   0.45912   0.46154   0.46211   0.46920
 RFO step:  Lambda=-5.27882264D-03 EMin= 2.21768424D-03
 Quartic linear search produced a step of  0.76136.
 Iteration  1 RMS(Cart)=  0.17559699 RMS(Int)=  0.03348608
 Iteration  2 RMS(Cart)=  0.04841894 RMS(Int)=  0.00386073
 Iteration  3 RMS(Cart)=  0.00259163 RMS(Int)=  0.00355750
 Iteration  4 RMS(Cart)=  0.00000130 RMS(Int)=  0.00355750
 Iteration  5 RMS(Cart)=  0.00000000 RMS(Int)=  0.00355750
 Variable       Old X    -DE/DX   Delta X   Delta X   Delta X     New X
                                 (Linear)    (Quad)   (Total)
    R1        2.67636  -0.01180  -0.00994  -0.03790  -0.04784   2.62852
    R2        1.89914   0.00314  -0.00272   0.00648   0.00376   1.90289
    R3        1.89189   0.00676  -0.00500   0.01414   0.00913   1.90102
    R4        2.24956   0.00241  -0.00201   0.00933   0.00732   2.25688
    R5        2.25312   0.00113  -0.00021   0.00469   0.00448   2.25760
    R6        4.11653   0.00405   0.18940   0.22307   0.41247   4.52900
    R7        2.64381  -0.00742  -0.01450  -0.02297  -0.03747   2.60634
    R8        1.90213   0.00209  -0.00041   0.00469   0.00427   1.90640
    R9        1.89954   0.00360  -0.00071   0.00816   0.00745   1.90699
   R10        2.22980   0.00671  -0.00939   0.02656   0.01717   2.24697
   R11        2.31901  -0.01125   0.00405  -0.04583  -0.04178   2.27723
    A1        2.14226   0.00027  -0.00232   0.00157  -0.00277   2.13949
    A2        2.14681   0.00048   0.00119   0.00503   0.00420   2.15101
    A3        1.99112  -0.00063   0.00402  -0.00081   0.00119   1.99231
    A4        2.06756   0.00078   0.00025   0.01126   0.00753   2.07509
    A5        2.05457   0.00206  -0.00183   0.02027   0.01461   2.06917
    A6        1.93075  -0.00478   0.05039  -0.02030   0.03032   1.96107
    A7        2.11790  -0.00019   0.00408   0.02050   0.01514   2.13304
    A8        1.56720  -0.00172  -0.02913  -0.07272  -0.10025   1.46696
    A9        1.49446  -0.00206  -0.02742  -0.06868  -0.09449   1.39997
   A10        2.15603  -0.00109   0.00252  -0.00526  -0.00290   2.15313
   A11        2.14518   0.00053  -0.00138   0.00339   0.00185   2.14703
   A12        1.98161   0.00055  -0.00141   0.00207   0.00050   1.98212
   A13        2.11669  -0.00196   0.00400  -0.01859  -0.02479   2.09190
   A14        2.07909  -0.00081   0.01375  -0.00947  -0.00600   2.07309
   A15        2.08040   0.00314   0.01687   0.02989   0.03638   2.11679
   A16        1.93638   0.00115   0.09028   0.09355   0.18384   2.12022
    D1        2.93746   0.00555   0.02268   0.13799   0.16093   3.09838
    D2        0.10276  -0.00352   0.01346  -0.04529  -0.03219   0.07057
    D3       -1.57393   0.00080   0.01847   0.04057   0.05910  -1.51483
    D4       -0.11612   0.00382  -0.01141   0.05305   0.04194  -0.07418
    D5       -2.95082  -0.00525  -0.02063  -0.13022  -0.15118  -3.10200
    D6        1.65568  -0.00093  -0.01561  -0.04436  -0.05989   1.59579
    D7       -0.29402   0.00059  -0.04409  -0.03042  -0.07461  -0.36862
    D8        1.80949  -0.00035  -0.04456  -0.05418  -0.10389   1.70560
    D9       -2.35369  -0.00028  -0.03829  -0.02341  -0.05646  -2.41015
   D10        3.08809   0.00202   0.09059   0.01140   0.10044  -3.09466
   D11        0.07447  -0.00155  -0.07800  -0.00740  -0.08385  -0.00938
   D12       -0.08440   0.00183   0.06382   0.02024   0.08251  -0.00189
   D13       -3.09802  -0.00175  -0.10478   0.00144  -0.10178   3.08339
   D14       -1.69224   0.00163  -0.00290   0.02929   0.02894  -1.66329
   D15        1.57464  -0.00150  -0.16536   0.01442  -0.15349   1.42115
         Item               Value     Threshold  Converged?
 Maximum Force            0.011798     0.000450     NO 
 RMS     Force            0.003844     0.000300     NO 
 Maximum Displacement     0.558368     0.001800     NO 
 RMS     Displacement     0.214558     0.001200     NO 
 Predicted change in Energy=-4.120777D-03
 GradGradGradGradGradGradGradGradGradGradGradGradGradGradGradGradGradGrad

                          Input orientation:                          
 ---------------------------------------------------------------------
 Center     Atomic      Atomic             Coordinates (Angstroms)
 Number     Number       Type             X           Y           Z
 ---------------------------------------------------------------------
      1          7           0        1.939124   -0.816888   -0.344137
      2          5           0        1.699603    0.551518   -0.274573
      3          7           0       -2.263560    0.250336   -0.084799
      4          5           0       -1.268130    0.242846    0.869822
      5          1           0       -2.297742    0.911996   -0.845565
      6          1           0        1.208917    1.100020   -1.215160
      7          1           0        2.099996    1.153722    0.676362
      8          1           0        2.383140   -1.328273    0.401061
      9          1           0        1.663267   -1.385969   -1.126469
     10          1           0       -3.005558   -0.433126   -0.110856
     11          1           0       -1.262614   -0.595782    1.712731
     12          1           0       -0.384962    1.059151    0.793502
 ---------------------------------------------------------------------
                    Distance matrix (angstroms):
                    1          2          3          4          5
     1  N    0.000000
     2  B    1.390950   0.000000
[...]
    11  H    4.916179   6.020134   2.236736   1.195075   3.157652
    12  H    3.240497   4.544266   2.230633   1.199083   2.526250
                    6          7          8          9         10
     6  H    0.000000
     7  H    2.089991   0.000000
     8  H    3.157451   2.537921   0.000000
     9  H    2.540959   3.156927   1.683783   0.000000
    10  H    5.168385   5.130386   4.099270   4.135569   0.000000
    11  H    6.577956   6.604970   4.643741   4.609627   2.539425
    12  H    5.165147   5.242895   2.947490   2.830802   3.152779
                   11         12
    11  H    0.000000
    12  H    2.088239   0.000000
 Stoichiometry    B2H8N2
 Framework group  C1[X(B2H8N2)]
 Deg. of freedom    30
 Full point group                 C1      NOp   1
 Largest Abelian subgroup         C1      NOp   1
 Largest concise Abelian subgroup C1      NOp   1
                         Standard orientation:                         
 ---------------------------------------------------------------------
 Center     Atomic      Atomic             Coordinates (Angstroms)
 Number     Number       Type             X           Y           Z
 ---------------------------------------------------------------------
      1          7           0        1.440475   -0.563702    0.037374
      2          5           0        2.478083    0.365378   -0.032738
      3          7           0       -1.600277    0.692509    0.003041
      4          5           0       -2.280653   -0.518410   -0.019203
      5          1           0       -0.590512    0.756746   -0.015179
      6          1           0        2.892596    0.692719   -1.104327
      7          1           0        2.916581    0.819781    0.981660
      8          1           0        1.063386   -0.912608    0.907243
      9          1           0        1.041594   -1.016264   -0.773206
     10          1           0       -2.067842    1.586533    0.039068
     11          1           0       -3.475457   -0.526787    0.004817
     12          1           0       -1.648885   -1.536608   -0.063276
 ---------------------------------------------------------------------
 Rotational constants (GHZ):          17.9992326           2.1757687           1.9974776

 **********************************************************************

            Population analysis using the SCF density.

 **********************************************************************

 Orbital symmetries:
 Alpha Orbitals:
       Occupied  (A) (A) (A) (A) (A) (A) (A) (A) (A) (A) (A) (A)
                 (A) (A) (A) (A)
       Virtual   (A) (A) (A) (A) (A) (A) (A) (A) (A) (A) (A) (A)
                 (A) (A) (A) (A) (A) (A) (A) (A) (A) (A) (A) (A)
                 (A) (A) (A) (A) (A) (A) (A) (A) (A) (A) (A) (A)
                 (A) (A) (A) (A) (A) (A) (A) (A) (A) (A) (A) (A)
                 (A) (A) (A) (A) (A) (A) (A) (A) (A) (A) (A) (A)
                 (A) (A) (A) (A) (A) (A) (A) (A) (A) (A) (A) (A)
                 (A) (A) (A) (A) (A) (A) (A) (A) (A) (A) (A) (A)
 Beta  Orbitals:
       Occupied  (A) (A) (A) (A) (A) (A) (A) (A) (A) (A) (A) (A)
                 (A) (A) (A) (A)
       Virtual   (A) (A) (A) (A) (A) (A) (A) (A) (A) (A) (A) (A)
                 (A) (A) (A) (A) (A) (A) (A) (A) (A) (A) (A) (A)
                 (A) (A) (A) (A) (A) (A) (A) (A) (A) (A) (A) (A)
                 (A) (A) (A) (A) (A) (A) (A) (A) (A) (A) (A) (A)
                 (A) (A) (A) (A) (A) (A) (A) (A) (A) (A) (A) (A)
                 (A) (A) (A) (A) (A) (A) (A) (A) (A) (A) (A) (A)
                 (A) (A) (A) (A) (A) (A) (A) (A) (A) (A) (A) (A)
 The electronic state is 1-A.
 Alpha  occ. eigenvalues --  -14.34735 -14.33390  -6.74257  -6.73402  -0.87649
 Alpha  occ. eigenvalues --   -0.86269  -0.53045  -0.51866  -0.51709  -0.50755
 Alpha  occ. eigenvalues --   -0.39550  -0.38810  -0.32284  -0.31731  -0.30716
 Alpha  occ. eigenvalues --   -0.29538
 Alpha virt. eigenvalues --    0.01052   0.02030   0.06294   0.10144   0.13036
 Alpha virt. eigenvalues --    0.14804   0.18224   0.19971   0.22729   0.24308
 Alpha virt. eigenvalues --    0.24978   0.26241   0.42721   0.43437   0.45864
 Alpha virt. eigenvalues --    0.45972   0.46794   0.48582   0.55914   0.58457
 Alpha virt. eigenvalues --    0.71828   0.73697   0.73979   0.81650   0.81912
 Alpha virt. eigenvalues --    0.83693   0.86426   0.90962   0.91556   0.92373
 Alpha virt. eigenvalues --    0.95547   1.01746   1.13478   1.14106   1.16770
 Alpha virt. eigenvalues --    1.17240   1.19694   1.21323   1.22008   1.26430
 Alpha virt. eigenvalues --    1.46306   1.47431   1.57822   1.58734   1.68664
 Alpha virt. eigenvalues --    1.70100   1.72807   1.73896   2.00603   2.02887
 Alpha virt. eigenvalues --    2.07725   2.09351   2.15480   2.16948   2.24472
 Alpha virt. eigenvalues --    2.25379   2.29929   2.30757   2.38149   2.38530
 Alpha virt. eigenvalues --    2.39475   2.41683   2.56075   2.56562   2.60572
 Alpha virt. eigenvalues --    2.61621   2.62898   2.66005   2.66670   2.66940
 Alpha virt. eigenvalues --    2.93558   2.95176   3.11290   3.13121   3.22249
 Alpha virt. eigenvalues --    3.22887   3.25719   3.31346   3.61309   3.63170
 Alpha virt. eigenvalues --    3.65030   3.68167   4.09720   4.13016
  Beta  occ. eigenvalues --  -14.34735 -14.33390  -6.74257  -6.73402  -0.87649
  Beta  occ. eigenvalues --   -0.86269  -0.53045  -0.51866  -0.51709  -0.50755
  Beta  occ. eigenvalues --   -0.39550  -0.38810  -0.32284  -0.31731  -0.30716
  Beta  occ. eigenvalues --   -0.29538
  Beta virt. eigenvalues --    0.01052   0.02030   0.06294   0.10144   0.13036
  Beta virt. eigenvalues --    0.14804   0.18224   0.19971   0.22729   0.24308
  Beta virt. eigenvalues --    0.24978   0.26241   0.42721   0.43437   0.45864
  Beta virt. eigenvalues --    0.45972   0.46794   0.48582   0.55914   0.58457
  Beta virt. eigenvalues --    0.71828   0.73697   0.73979   0.81650   0.81912
  Beta virt. eigenvalues --    0.83693   0.86426   0.90962   0.91556   0.92373
  Beta virt. eigenvalues --    0.95547   1.01746   1.13478   1.14106   1.16770
  Beta virt. eigenvalues --    1.17240   1.19694   1.21323   1.22008   1.26430
  Beta virt. eigenvalues --    1.46306   1.47431   1.57822   1.58734   1.68664
  Beta virt. eigenvalues --    1.70100   1.72807   1.73896   2.00603   2.02887
  Beta virt. eigenvalues --    2.07725   2.09351   2.15480   2.16948   2.24472
  Beta virt. eigenvalues --    2.25379   2.29929   2.30757   2.38149   2.38530
  Beta virt. eigenvalues --    2.39475   2.41683   2.56075   2.56562   2.60572
  Beta virt. eigenvalues --    2.61621   2.62898   2.66005   2.66670   2.66940
  Beta virt. eigenvalues --    2.93558   2.95176   3.11290   3.13121   3.22249
  Beta virt. eigenvalues --    3.22887   3.25719   3.31346   3.61309   3.63170
  Beta virt. eigenvalues --    3.65030   3.68167   4.09720   4.13016
          Condensed to atoms (all electrons):
               1          2          3          4          5          6
     1  N    6.372749   0.501704  -0.009962   0.002432   0.024463  -0.027172
     2  B    0.501704   3.566773  -0.000848   0.000010   0.005202   0.415271
     3  N   -0.009962  -0.000848   6.405874   0.518756   0.332549  -0.000014
     4  B    0.002432   0.000010   0.518756   3.558091  -0.033216   0.000003
     5  H    0.024463   0.005202   0.332549  -0.033216   0.438595   0.000020
     6  H   -0.027172   0.415271  -0.000014   0.000003   0.000020   0.705841
     7  H   -0.027391   0.415127  -0.000014   0.000002   0.000023  -0.026965
     8  H    0.354258  -0.032676   0.000541   0.001066  -0.000929   0.003460
     9  H    0.354107  -0.032391   0.000253   0.001239  -0.001001  -0.004123
    10  H    0.000124   0.000033   0.354133  -0.035113  -0.027679   0.000000
    11  H    0.000019   0.000002  -0.026515   0.414687   0.003662   0.000000
    12  H   -0.000860  -0.000063  -0.028723   0.408313  -0.005133  -0.000000
               7          8          9         10         11         12
     1  N   -0.027391   0.354258   0.354107   0.000124   0.000019  -0.000860
     2  B    0.415127  -0.032676  -0.032391   0.000033   0.000002  -0.000063
     3  N   -0.000014   0.000541   0.000253   0.354133  -0.026515  -0.028723
     4  B    0.000002   0.001066   0.001239  -0.035113   0.414687   0.408313
     5  H    0.000023  -0.000929  -0.001001  -0.027679   0.003662  -0.005133
     6  H   -0.026965   0.003460  -0.004123   0.000000   0.000000  -0.000000
     7  H    0.706863  -0.004165   0.003451   0.000000   0.000000  -0.000000
     8  H   -0.004165   0.436155  -0.030797   0.000014  -0.000009   0.001112
     9  H    0.003451  -0.030797   0.434286   0.000018  -0.000014   0.001757
    10  H    0.000000   0.000014   0.000018   0.449293  -0.003979   0.003736
    11  H    0.000000  -0.000009  -0.000014  -0.003979   0.713871  -0.029143
    12  H   -0.000000   0.001112   0.001757   0.003736  -0.029143   0.746302
          Atomic-Atomic Spin Densities.
               1          2          3          4          5          6
     1  N   -0.000000   0.000000   0.000000  -0.000000   0.000000  -0.000000
     2  B    0.000000   0.000000   0.000000  -0.000000  -0.000000   0.000000
     3  N    0.000000   0.000000   0.000000  -0.000000   0.000000   0.000000
     4  B   -0.000000  -0.000000  -0.000000  -0.000000  -0.000000  -0.000000
     5  H    0.000000  -0.000000   0.000000  -0.000000   0.000000  -0.000000
     6  H   -0.000000   0.000000   0.000000  -0.000000  -0.000000   0.000000
     7  H   -0.000000   0.000000  -0.000000  -0.000000   0.000000   0.000000
     8  H   -0.000000   0.000000  -0.000000  -0.000000  -0.000000  -0.000000
     9  H   -0.000000   0.000000  -0.000000  -0.000000  -0.000000  -0.000000
    10  H    0.000000  -0.000000   0.000000  -0.000000  -0.000000  -0.000000
    11  H    0.000000   0.000000  -0.000000   0.000000   0.000000   0.000000
    12  H    0.000000  -0.000000   0.000000  -0.000000   0.000000  -0.000000
               7          8          9         10         11         12
     1  N   -0.000000  -0.000000  -0.000000   0.000000   0.000000   0.000000
     2  B    0.000000   0.000000   0.000000  -0.000000   0.000000  -0.000000
     3  N   -0.000000  -0.000000  -0.000000   0.000000  -0.000000   0.000000
     4  B   -0.000000  -0.000000  -0.000000  -0.000000   0.000000  -0.000000
     5  H    0.000000  -0.000000  -0.000000  -0.000000   0.000000   0.000000
     6  H    0.000000  -0.000000  -0.000000  -0.000000   0.000000  -0.000000
     7  H   -0.000000   0.000000  -0.000000  -0.000000   0.000000   0.000000
     8  H    0.000000  -0.000000  -0.000000  -0.000000  -0.000000   0.000000
     9  H   -0.000000  -0.000000   0.000000   0.000000  -0.000000   0.000000
    10  H   -0.000000  -0.000000   0.000000   0.000000  -0.000000   0.000000
    11  H    0.000000  -0.000000  -0.000000  -0.000000   0.000000  -0.000000
    12  H    0.000000   0.000000   0.000000   0.000000  -0.000000   0.000000
 Mulliken charges and spin densities:
               1          2
     1  N   -0.544470  -0.000000
     2  B    0.161857   0.000000
     3  N   -0.546031   0.000000
     4  B    0.163728  -0.000000
     5  H    0.263444   0.000000
     6  H   -0.066322  -0.000000
     7  H   -0.066931   0.000000
     8  H    0.271969  -0.000000
     9  H    0.273214   0.000000
    10  H    0.259421   0.000000
    11  H   -0.072580   0.000000
    12  H   -0.097297   0.000000
 Sum of Mulliken charges =   0.00000   0.00000
 Mulliken charges and spin densities with hydrogens summed into heavy atoms:
               1          2
     1  N    0.000713  -0.000000
     2  B    0.028603   0.000000
     3  N   -0.023166   0.000000
     4  B   -0.006150  -0.000000
 Electronic spatial extent (au):  <R**2>=            592.6425
 Charge=              0.0000 electrons
 Dipole moment (field-independent basis, Debye):
    X=             -0.0928    Y=              0.3437    Z=              0.1450  Tot=              0.3844
 Quadrupole moment (field-independent basis, Debye-Ang):
   XX=            -35.4513   YY=            -25.3675   ZZ=            -27.1635
   XY=             -5.4690   XZ=              0.0545   YZ=              0.0315
 Traceless Quadrupole moment (field-independent basis, Debye-Ang):
   XX=             -6.1239   YY=              3.9599   ZZ=              2.1640
   XY=             -5.4690   XZ=              0.0545   YZ=              0.0315
 Octapole moment (field-independent basis, Debye-Ang**2):
  XXX=             -5.1956  YYY=              7.0164  ZZZ=              0.9687  XYY=             -4.0483
  XXY=              4.6936  XXZ=              0.6505  XZZ=             -0.3460  YZZ=             -2.9862
  YYZ=              0.1842  XYZ=             -0.1213
 Hexadecapole moment (field-independent basis, Debye-Ang**3):
 XXXX=           -831.2215 YYYY=           -100.4568 ZZZZ=            -44.8092 XXXY=            -55.4028
 XXXZ=              0.7784 YYYX=            -34.5232 YYYZ=              0.2913 ZZZX=              1.2555
 ZZZY=             -0.3356 XXYY=           -142.3093 XXZZ=           -138.5558 YYZZ=            -24.4756
 XXYZ=              0.2755 YYXZ=             -0.6808 ZZXY=             -8.1060
 N-N= 9.978721815980D+01 E-N=-5.797060382457D+02  KE= 1.624608463927D+02
                          Isotropic Fermi Contact Couplings
        Atom                 a.u.       MegaHertz       Gauss      10(-4) cm-1
     1  N(14)              0.00000       0.00000       0.00000       0.00000
     2  B(11)              0.00000       0.00000       0.00000       0.00000
     3  N(14)              0.00000       0.00000       0.00000       0.00000
     4  B(11)              0.00000       0.00000       0.00000       0.00000
     5  H(1)               0.00000       0.00000       0.00000       0.00000
     6  H(1)               0.00000       0.00000       0.00000       0.00000
     7  H(1)               0.00000       0.00000       0.00000       0.00000
     8  H(1)               0.00000       0.00000       0.00000       0.00000
     9  H(1)              -0.00000      -0.00000      -0.00000      -0.00000
    10  H(1)               0.00000       0.00000       0.00000       0.00000
    11  H(1)               0.00000       0.00000       0.00000       0.00000
    12  H(1)              -0.00000      -0.00000      -0.00000      -0.00000
 --------------------------------------------------------
       Center         ----  Spin Dipole Couplings  ----
                      3XX-RR        3YY-RR        3ZZ-RR
 --------------------------------------------------------
     1   Atom        0.000000      0.000000      0.000000
     2   Atom        0.000000      0.000000      0.000000
     3   Atom        0.000000      0.000000      0.000000
     4   Atom        0.000000      0.000000      0.000000
     5   Atom        0.000000      0.000000      0.000000
     6   Atom        0.000000      0.000000      0.000000
     7   Atom        0.000000      0.000000      0.000000
     8   Atom        0.000000      0.000000      0.000000
     9   Atom        0.000000      0.000000      0.000000
    10   Atom        0.000000      0.000000      0.000000
    11   Atom        0.000000      0.000000      0.000000
    12   Atom        0.000000      0.000000      0.000000
 --------------------------------------------------------
                        XY            XZ            YZ
 --------------------------------------------------------
     1   Atom        0.000000      0.000000      0.000000
     2   Atom        0.000000      0.000000      0.000000
     3   Atom        0.000000      0.000000      0.000000
     4   Atom        0.000000      0.000000      0.000000
     5   Atom        0.000000      0.000000      0.000000
     6   Atom        0.000000      0.000000      0.000000
     7   Atom        0.000000      0.000000      0.000000
     8   Atom        0.000000      0.000000      0.000000
     9   Atom        0.000000      0.000000      0.000000
    10   Atom        0.000000      0.000000      0.000000
    11   Atom        0.000000      0.000000      0.000000
    12   Atom        0.000000      0.000000      0.000000
 --------------------------------------------------------


 ---------------------------------------------------------------------------------
              Anisotropic Spin Dipole Couplings in Principal Axis System
 ---------------------------------------------------------------------------------

       Atom             a.u.   MegaHertz   Gauss  10(-4) cm-1        Axes

              Baa     0.0000     0.000     0.000     0.000  1.0000  0.0000  0.0000
     1 N(14)  Bbb     0.0000     0.000     0.000     0.000 -0.0000  1.0000  0.0000
              Bcc     0.0000     0.000     0.000     0.000  0.0000  0.0000  1.0000
 
              Baa     0.0000     0.000     0.000     0.000  1.0000  0.0000  0.0000
     2 B(11)  Bbb     0.0000     0.000     0.000     0.000 -0.0000  1.0000  0.0000
              Bcc     0.0000     0.000     0.000     0.000  0.0000  0.0000  1.0000
 
              Baa     0.0000     0.000     0.000     0.000  1.0000  0.0000  0.0000
     3 N(14)  Bbb     0.0000     0.000     0.000     0.000 -0.0000  1.0000  0.0000
              Bcc     0.0000     0.000     0.000     0.000  0.0000  0.0000  1.0000
 
              Baa     0.0000     0.000     0.000     0.000  1.0000  0.0000  0.0000
     4 B(11)  Bbb     0.0000     0.000     0.000     0.000 -0.0000  1.0000  0.0000
              Bcc     0.0000     0.000     0.000     0.000  0.0000  0.0000  1.0000
 
              Baa     0.0000     0.000     0.000     0.000  1.0000  0.0000  0.0000
     5 H(1)   Bbb     0.0000     0.000     0.000     0.000 -0.0000  1.0000  0.0000
              Bcc     0.0000     0.000     0.000     0.000  0.0000  0.0000  1.0000
 
              Baa     0.0000     0.000     0.000     0.000  1.0000  0.0000  0.0000
     6 H(1)   Bbb     0.0000     0.000     0.000     0.000 -0.0000  1.0000  0.0000
              Bcc     0.0000     0.000     0.000     0.000  0.0000  0.0000  1.0000
 
              Baa     0.0000     0.000     0.000     0.000  1.0000  0.0000  0.0000
     7 H(1)   Bbb     0.0000     0.000     0.000     0.000 -0.0000  1.0000  0.0000
              Bcc     0.0000     0.000     0.000     0.000  0.0000  0.0000  1.0000
 
              Baa     0.0000     0.000     0.000     0.000  1.0000  0.0000  0.0000
     8 H(1)   Bbb     0.0000     0.000     0.000     0.000 -0.0000  1.0000  0.0000
              Bcc     0.0000     0.000     0.000     0.000  0.0000  0.0000  1.0000
 
              Baa     0.0000     0.000     0.000     0.000  1.0000  0.0000  0.0000
     9 H(1)   Bbb     0.0000     0.000     0.000     0.000 -0.0000  1.0000  0.0000
              Bcc     0.0000     0.000     0.000     0.000  0.0000  0.0000  1.0000
 
              Baa     0.0000     0.000     0.000     0.000  1.0000  0.0000  0.0000
    10 H(1)   Bbb     0.0000     0.000     0.000     0.000 -0.0000  1.0000  0.0000
              Bcc     0.0000     0.000     0.000     0.000  0.0000  0.0000  1.0000
 
              Baa     0.0000     0.000     0.000     0.000  1.0000  0.0000  0.0000
    11 H(1)   Bbb     0.0000     0.000     0.000     0.000 -0.0000  1.0000  0.0000
              Bcc     0.0000     0.000     0.000     0.000  0.0000  0.0000  1.0000
 
              Baa     0.0000     0.000     0.000     0.000  1.0000  0.0000  0.0000
    12 H(1)   Bbb     0.0000     0.000     0.000     0.000 -0.0000  1.0000  0.0000
              Bcc     0.0000     0.000     0.000     0.000  0.0000  0.0000  1.0000
 

 ---------------------------------------------------------------------------------



 BLESSED ARE THOSE WHO NOUGHT EXPECT,
 FOR THEY SHALL NOT BE DISAPPOINTED..  WALCOT - ODE TO PITT
 Error termination request processed by link 9999.
 Error termination via Lnk1e in /opt/gaussian/g16/legacy/g16/l9999.exe at Fri Jul  3 16:43:01 2020.
 Job cpu time:       0 days  1 hours 20 minutes 40.5 seconds.
 Elapsed time:       0 days  0 hours 20 minutes 49.9 seconds.
 File lengths (MBytes):  RWF=     14 Int=      0 D2E=      0 Chk=      2 Scr=      1
