 Entering Gaussian System, Link 0=/opt/gaussian/g16/legacy/g16/g16
 Initial command:
 /opt/gaussian/g16/legacy/g16/l1.exe "/scratch/1311818/Gau-25034.inp" -scrdir="/scratch/1311818/"
 Entering Link 1 = /opt/gaussian/g16/legacy/g16/l1.exe PID=     25041.
  
 Copyright (c) 1988,1990,1992,1993,1995,1998,2003,2009,2016,
            Gaussian, Inc.  All Rights Reserved.
  
 This is part of the Gaussian(R) 16 program.  It is based on
 the Gaussian(R) 09 system (copyright 2009, Gaussian, Inc.),
 the Gaussian(R) 03 system (copyright 2003, Gaussian, Inc.),
 the Gaussian(R) 98 system (copyright 1998, Gaussian, Inc.),
 the Gaussian(R) 94 system (copyright 1995, Gaussian, Inc.),
 the Gaussian 92(TM) system (copyright 1992, Gaussian, Inc.),
 the Gaussian 90(TM) system (copyright 1990, Gaussian, Inc.),
 the Gaussian 88(TM) system (copyright 1988, Gaussian, Inc.),
 the Gaussian 86(TM) system (copyright 1986, Carnegie Mellon
 University), and the Gaussian 82(TM) system (copyright 1983,
 Carnegie Mellon University). Gaussian is a federally registered
 trademark of Gaussian, Inc.
  
 This software contains proprietary and confidential information,
 including trade secrets, belonging to Gaussian, Inc.
  
 This software is provided under written license and may be
 used, copied, transmitted, or stored only in accord with that
 written license.
  
 The following legend is applicable only to US Government
 contracts under FAR:
  
                    RESTRICTED RIGHTS LEGEND
  
 Use, reproduction and disclosure by the US Government is
 subject to restrictions as set forth in subparagraphs (a)
 and (c) of the Commercial Computer Software - Restricted
 Rights clause in FAR 52.227-19.
  
 Gaussian, Inc.
 340 Quinnipiac St., Bldg. 40, Wallingford CT 06492
  
  
 ---------------------------------------------------------------
 Warning -- This program may not be used in any manner that
 competes with the business of Gaussian, Inc. or will provide
 assistance to any competitor of Gaussian, Inc.  The licensee
 of this program is prohibited from giving any competitor of
 Gaussian, Inc. access to this program.  By using this program,
 the user acknowledges that Gaussian, Inc. is engaged in the
 business of creating and licensing software in the field of
 computational chemistry and represents and warrants to the
 licensee that it is not a competitor of Gaussian, Inc. and that
 it will not use this program in any manner prohibited above.
 ---------------------------------------------------------------
  

 Cite this work as:
 Gaussian 16, Revision A.03,
 M. J. Frisch, G. W. Trucks, H. B. Schlegel, G. E. Scuseria, 
 M. A. Robb, J. R. Cheeseman, G. Scalmani, V. Barone, 
 G. A. Petersson, H. Nakatsuji, X. Li, M. Caricato, A. V. Marenich, 
 J. Bloino, B. G. Janesko, R. Gomperts, B. Mennucci, H. P. Hratchian, 
 J. V. Ortiz, A. F. Izmaylov, J. L. Sonnenberg, D. Williams-Young, 
 F. Ding, F. Lipparini, F. Egidi, J. Goings, B. Peng, A. Petrone, 
 T. Henderson, D. Ranasinghe, V. G. Zakrzewski, J. Gao, N. Rega, 
 G. Zheng, W. Liang, M. Hada, M. Ehara, K. Toyota, R. Fukuda, 
 J. Hasegawa, M. Ishida, T. Nakajima, Y. Honda, O. Kitao, H. Nakai, 
 T. Vreven, K. Throssell, J. A. Montgomery, Jr., J. E. Peralta, 
 F. Ogliaro, M. J. Bearpark, J. J. Heyd, E. N. Brothers, K. N. Kudin, 
 V. N. Staroverov, T. A. Keith, R. Kobayashi, J. Normand, 
 K. Raghavachari, A. P. Rendell, J. C. Burant, S. S. Iyengar, 
 J. Tomasi, M. Cossi, J. M. Millam, M. Klene, C. Adamo, R. Cammi, 
 J. W. Ochterski, R. L. Martin, K. Morokuma, O. Farkas, 
 J. B. Foresman, and D. J. Fox, Gaussian, Inc., Wallingford CT, 2016.
 
 ******************************************
 Gaussian 16:  EM64L-G16RevA.03 25-Dec-2016
                 3-Jul-2020 
 ******************************************
 %mem=16GB
 %nprocshared=4
 Will use up to    4 processors via shared memory.
 ------------------------------------------------------------------
 #opt=(calcall, ts, noeigen) ub3lyp/6-31G(d,p) scf=(maxcycles=1024)
 ------------------------------------------------------------------
 1/5=1,10=4,11=1,18=20,26=3,38=1/1,3;
 2/9=110,12=2,17=6,18=5,40=1/2;
 3/5=1,6=6,7=101,11=2,25=1,30=1,71=2,74=-5,116=2,140=1/1,2,3;
 4//1;
 5/5=2,7=1024,38=5/2;
 8/6=4,10=90,11=11/1;
 11/6=1,8=1,9=11,15=111,16=1/1,2,10;
 10/6=1/2;
 6/7=2,8=2,9=2,10=2,18=1,28=1/1;
 7/10=1,25=1/1,2,3,16;
 1/5=1,10=4,11=1,18=20,26=3/3(3);
 2/9=110/2;
 7/8=1,9=1,25=1,44=-1/16;
 99//99;
 2/9=110/2;
 3/5=1,6=6,7=101,11=2,25=1,30=1,71=2,74=-5,116=2,140=1/1,2,3;
 4/5=5,16=3,69=1/1;
 5/5=2,7=1024,38=5/2;
 8/6=4,10=90,11=11/1;
 11/6=1,8=1,9=11,15=111,16=1/1,2,10;
 10/6=1/2;
 7/10=1,25=1/1,2,3,16;
 1/5=1,10=4,11=1,18=20,26=3/3(-8);
 2/9=110/2;
 6/7=2,8=2,9=2,10=2,18=1,19=2,28=1/1;
 7/8=1,9=1,25=1,44=-1/16;
 99//99;
 ---------------
 something title
 ---------------
 Symbolic Z-matrix:
 Charge =  0 Multiplicity = 1
 N                     1.30718   0.26268   0.75913 
 B                     2.15602   0.18479  -0.3883 
 N                     0.68383  -2.33777   0.37964 
 B                     0.29832  -1.14595  -0.30109 
 H                     1.62553  -2.73009   0.27989 
 H                     3.00535  -0.63525  -0.40267 
 H                     2.15548   1.08557  -1.15439 
 H                     0.71712   1.0631    0.91245 
 H                     1.47948  -0.2536    1.60309 
 H                     0.00284  -2.98825   0.75277 
 H                    -0.80316  -0.76741  -0.12184 
 H                     0.7974   -0.9135   -1.36984 
 
 Add virtual bond connecting atoms B4         and N1         Dist= 3.84D+00.
 Add virtual bond connecting atoms H12        and B2         Dist= 3.79D+00.

 GradGradGradGradGradGradGradGradGradGradGradGradGradGradGradGradGradGrad
 Berny optimization.
 Initialization pass.
                           ----------------------------
                           !    Initial Parameters    !
                           ! (Angstroms and Degrees)  !
 --------------------------                            --------------------------
 ! Name  Definition              Value          Derivative Info.                !
 --------------------------------------------------------------------------------
 ! R1    R(1,2)                  1.4294         calculate D2E/DX2 analytically  !
 ! R2    R(1,4)                  2.0313         calculate D2E/DX2 analytically  !
 ! R3    R(1,8)                  1.0062         calculate D2E/DX2 analytically  !
 ! R4    R(1,9)                  1.0042         calculate D2E/DX2 analytically  !
 ! R5    R(2,6)                  1.1807         calculate D2E/DX2 analytically  !
 ! R6    R(2,7)                  1.1825         calculate D2E/DX2 analytically  !
 ! R7    R(2,12)                 2.0039         calculate D2E/DX2 analytically  !
 ! R8    R(3,4)                  1.4256         calculate D2E/DX2 analytically  !
 ! R9    R(3,5)                  1.025          calculate D2E/DX2 analytically  !
 ! R10   R(3,10)                 1.013          calculate D2E/DX2 analytically  !
 ! R11   R(4,11)                 1.1784         calculate D2E/DX2 analytically  !
 ! R12   R(4,12)                 1.2022         calculate D2E/DX2 analytically  !
 ! A1    A(2,1,4)               80.6868         calculate D2E/DX2 analytically  !
 ! A2    A(2,1,8)              120.9266         calculate D2E/DX2 analytically  !
 ! A3    A(2,1,9)              123.0044         calculate D2E/DX2 analytically  !
 ! A4    A(4,1,8)              109.8736         calculate D2E/DX2 analytically  !
 ! A5    A(4,1,9)               99.6333         calculate D2E/DX2 analytically  !
 ! A6    A(8,1,9)              112.4285         calculate D2E/DX2 analytically  !
 ! A7    A(1,2,6)              118.3471         calculate D2E/DX2 analytically  !
 ! A8    A(1,2,7)              118.5722         calculate D2E/DX2 analytically  !
 ! A9    A(1,2,12)              91.1709         calculate D2E/DX2 analytically  !
 ! A10   A(6,2,7)              121.434          calculate D2E/DX2 analytically  !
 ! A11   A(6,2,12)              95.802          calculate D2E/DX2 analytically  !
 ! A12   A(7,2,12)              95.7312         calculate D2E/DX2 analytically  !
 ! A13   A(4,3,5)              121.4625         calculate D2E/DX2 analytically  !
 ! A14   A(4,3,10)             122.068          calculate D2E/DX2 analytically  !
 ! A15   A(5,3,10)             114.0598         calculate D2E/DX2 analytically  !
 ! A16   A(1,4,3)              101.3151         calculate D2E/DX2 analytically  !
 ! A17   A(1,4,11)              99.3276         calculate D2E/DX2 analytically  !
 ! A18   A(1,4,12)              97.108          calculate D2E/DX2 analytically  !
 ! A19   A(3,4,11)             116.6581         calculate D2E/DX2 analytically  !
 ! A20   A(3,4,12)             118.285          calculate D2E/DX2 analytically  !
 ! A21   A(11,4,12)            117.4608         calculate D2E/DX2 analytically  !
 ! A22   A(2,12,4)              87.2479         calculate D2E/DX2 analytically  !
 ! D1    D(4,1,2,6)            -86.4427         calculate D2E/DX2 analytically  !
 ! D2    D(4,1,2,7)            107.9638         calculate D2E/DX2 analytically  !
 ! D3    D(4,1,2,12)            10.7909         calculate D2E/DX2 analytically  !
 ! D4    D(8,1,2,6)            165.8995         calculate D2E/DX2 analytically  !
 ! D5    D(8,1,2,7)              0.306          calculate D2E/DX2 analytically  !
 ! D6    D(8,1,2,12)           -96.8669         calculate D2E/DX2 analytically  !
 ! D7    D(9,1,2,6)              9.0484         calculate D2E/DX2 analytically  !
 ! D8    D(9,1,2,7)           -156.5451         calculate D2E/DX2 analytically  !
 ! D9    D(9,1,2,12)           106.282          calculate D2E/DX2 analytically  !
 ! D10   D(2,1,4,3)            102.4677         calculate D2E/DX2 analytically  !
 ! D11   D(2,1,4,11)          -137.7599         calculate D2E/DX2 analytically  !
 ! D12   D(2,1,4,12)           -18.3258         calculate D2E/DX2 analytically  !
 ! D13   D(8,1,4,3)           -137.8951         calculate D2E/DX2 analytically  !
 ! D14   D(8,1,4,11)           -18.1227         calculate D2E/DX2 analytically  !
 ! D15   D(8,1,4,12)           101.3114         calculate D2E/DX2 analytically  !
 ! D16   D(9,1,4,3)            -19.6757         calculate D2E/DX2 analytically  !
 ! D17   D(9,1,4,11)           100.0967         calculate D2E/DX2 analytically  !
 ! D18   D(9,1,4,12)          -140.4692         calculate D2E/DX2 analytically  !
 ! D19   D(1,2,12,4)           -18.2116         calculate D2E/DX2 analytically  !
 ! D20   D(6,2,12,4)           100.4368         calculate D2E/DX2 analytically  !
 ! D21   D(7,2,12,4)          -137.0813         calculate D2E/DX2 analytically  !
 ! D22   D(5,3,4,1)            -73.148          calculate D2E/DX2 analytically  !
 ! D23   D(5,3,4,11)          -179.7311         calculate D2E/DX2 analytically  !
 ! D24   D(5,3,4,12)            31.3872         calculate D2E/DX2 analytically  !
 ! D25   D(10,3,4,1)           125.5205         calculate D2E/DX2 analytically  !
 ! D26   D(10,3,4,11)           18.9374         calculate D2E/DX2 analytically  !
 ! D27   D(10,3,4,12)         -129.9443         calculate D2E/DX2 analytically  !
 ! D28   D(1,4,12,2)            12.8019         calculate D2E/DX2 analytically  !
 ! D29   D(3,4,12,2)           -94.154          calculate D2E/DX2 analytically  !
 ! D30   D(11,4,12,2)          117.2131         calculate D2E/DX2 analytically  !
 --------------------------------------------------------------------------------
 Trust Radius=3.00D-01 FncErr=1.00D-07 GrdErr=1.00D-06 EigMax=2.50D+02 EigMin=1.00D-04
 Number of steps in this run=     74 maximum allowed number of steps=    100.
 Search for a saddle point of order  1.
 GradGradGradGradGradGradGradGradGradGradGradGradGradGradGradGradGradGrad

                          Input orientation:                          
 ---------------------------------------------------------------------
 Center     Atomic      Atomic             Coordinates (Angstroms)
 Number     Number       Type             X           Y           Z
 ---------------------------------------------------------------------
      1          7           0        1.307175    0.262684    0.759125
      2          5           0        2.156023    0.184785   -0.388295
      3          7           0        0.683833   -2.337767    0.379639
      4          5           0        0.298318   -1.145946   -0.301091
      5          1           0        1.625525   -2.730092    0.279885
      6          1           0        3.005349   -0.635249   -0.402672
      7          1           0        2.155481    1.085573   -1.154388
      8          1           0        0.717122    1.063103    0.912450
      9          1           0        1.479476   -0.253597    1.603088
     10          1           0        0.002836   -2.988251    0.752773
     11          1           0       -0.803163   -0.767408   -0.121837
     12          1           0        0.797395   -0.913500   -1.369840
 ---------------------------------------------------------------------
                    Distance matrix (angstroms):
                    1          2          3          4          5
     1  N    0.000000
     2  B    1.429400   0.000000
     3  N    2.700909   3.019989   0.000000
     4  B    2.031278   2.286814   1.425641   0.000000
     5  H    3.047577   3.037170   1.025014   2.146749   0.000000
     6  H    2.244961   1.180685   2.983289   2.756655   2.599647
     7  H    2.249067   1.182505   4.029670   3.026028   4.110632
     8  H    1.006152   2.129276   3.442515   2.554990   3.951413
     9  H    1.004245   2.148372   2.544335   2.411912   2.811623
    10  H    3.502844   4.000801   1.012974   2.142901   1.709792
    11  H    2.508129   3.120009   2.220059   1.178424   3.148338
    12  H    2.485111   2.003879   2.258785   1.202220   2.589865
                    6          7          8          9         10
     6  H    0.000000
     7  H    2.061209   0.000000
     8  H    3.138460   2.518174   0.000000
     9  H    2.548925   3.139113   1.670887   0.000000
    10  H    3.985819   4.986701   4.116937   3.222085   0.000000
    11  H    3.821138   3.640505   2.594569   2.906855   2.519270
    12  H    2.426499   2.426337   3.020306   3.120738   3.072686
                   11         12
    11  H    0.000000
    12  H    2.034856   0.000000
 Stoichiometry    B2H8N2
 Framework group  C1[X(B2H8N2)]
 Deg. of freedom    30
 Full point group                 C1      NOp   1
 Largest Abelian subgroup         C1      NOp   1
 Largest concise Abelian subgroup C1      NOp   1
                         Standard orientation:                         
 ---------------------------------------------------------------------
 Center     Atomic      Atomic             Coordinates (Angstroms)
 Number     Number       Type             X           Y           Z
 ---------------------------------------------------------------------
      1          7           0        1.003935   -0.654959   -0.299169
      2          5           0        1.374096    0.697513   -0.021708
      3          7           0       -1.579905    0.131585   -0.293632
      4          5           0       -0.634065   -0.075055    0.752857
      5          1           0       -1.517160    0.941035   -0.919338
      6          1           0        1.007077    1.542051   -0.760672
      7          1           0        2.230967    0.898708    0.767982
      8          1           0        1.457306   -1.421582    0.168898
      9          1           0        0.562334   -0.936434   -1.156063
     10          1           0       -2.483458   -0.326308   -0.300065
     11          1           0       -0.783559   -1.035900    1.418522
     12          1           0       -0.141874    0.889760    1.274598
 ---------------------------------------------------------------------
 Rotational constants (GHZ):          13.8473370           4.6913616           4.4817848
 Standard basis: 6-31G(d,p) (6D, 7F)
 There are   100 symmetry adapted cartesian basis functions of A   symmetry.
 There are   100 symmetry adapted basis functions of A   symmetry.
   100 basis functions,   168 primitive gaussians,   100 cartesian basis functions
    16 alpha electrons       16 beta electrons
       nuclear repulsion energy       114.5879248356 Hartrees.
 NAtoms=   12 NActive=   12 NUniq=   12 SFac= 1.00D+00 NAtFMM=   60 NAOKFM=F Big=F
 Integral buffers will be    131072 words long.
 Raffenetti 2 integral format.
 Two-electron integral symmetry is turned on.
 One-electron integrals computed using PRISM.
 NBasis=   100 RedAO= T EigKep=  5.62D-03  NBF=   100
 NBsUse=   100 1.00D-06 EigRej= -1.00D+00 NBFU=   100
 ExpMin= 1.27D-01 ExpMax= 4.17D+03 ExpMxC= 6.27D+02 IAcc=3 IRadAn=         5 AccDes= 0.00D+00
 Harris functional with IExCor=  402 and IRadAn=       5 diagonalized for initial guess.
 HarFok:  IExCor=  402 AccDes= 0.00D+00 IRadAn=         5 IDoV= 1 UseB2=F ITyADJ=14
 ICtDFT=  3500011 ScaDFX=  1.000000  1.000000  1.000000  1.000000
 FoFCou: FMM=F IPFlag=           0 FMFlag=      100000 FMFlg1=           0
         NFxFlg=           0 DoJE=T BraDBF=F KetDBF=T FulRan=T
         wScrn=  0.000000 ICntrl=       500 IOpCl=  0 I1Cent=   200000004 NGrid=           0
         NMat0=    1 NMatS0=      1 NMatT0=    0 NMatD0=    1 NMtDS0=    0 NMtDT0=    0
 Petite list used in FoFCou.
 Initial guess <Sx>= 0.0000 <Sy>= 0.0000 <Sz>= 0.0000 <S**2>=-0.0000 S=-0.0000
 Keep R1 and R2 ints in memory in canonical form, NReq=29209870.
 Requested convergence on RMS density matrix=1.00D-08 within1024 cycles.
 Requested convergence on MAX density matrix=1.00D-06.
 Requested convergence on             energy=1.00D-06.
 No special actions if energy rises.
 Integral accuracy reduced to 1.0D-05 until final iterations.
 Initial convergence to 1.0D-05 achieved.  Increase integral accuracy.
 SCF Done:  E(UB3LYP) =  -164.074368150     A.U. after   12 cycles
            NFock= 12  Conv=0.56D-08     -V/T= 2.0094
 <Sx>= 0.0000 <Sy>= 0.0000 <Sz>= 0.0000 <S**2>=-0.0000 S=-0.0000
 <L.S>= 0.000000000000E+00
 Annihilation of the first spin contaminant:
 S**2 before annihilation    -0.0000,   after    -0.0000
 DoSCS=F DFT=T ScalE2(SS,OS)=  1.000000  1.000000
 Range of M.O.s used for correlation:     1   100
 NBasis=   100 NAE=    16 NBE=    16 NFC=     0 NFV=     0
 NROrb=    100 NOA=    16 NOB=    16 NVA=    84 NVB=    84
 Symmetrizing basis deriv contribution to polar:
 IMax=3 JMax=2 DiffMx= 0.00D+00
 G2DrvN: will do    13 centers at a time, making    1 passes.
 Calling FoFCou, ICntrl=  3107 FMM=F I1Cent=   0 AccDes= 0.00D+00.
 End of G2Drv F.D. properties file   721 does not exist.
 End of G2Drv F.D. properties file   722 does not exist.
 End of G2Drv F.D. properties file   788 does not exist.
          IDoAtm=111111111111
          Differentiating once with respect to electric field.
                with respect to dipole field.
          Differentiating once with respect to nuclear coordinates.
 Keep R1 and R2 ints in memory in canonical form, NReq=29207815.
          There are    39 degrees of freedom in the 1st order CPHF.  IDoFFX=6 NUNeed=     3.
     36 vectors produced by pass  0 Test12= 6.89D-15 2.56D-09 XBig12= 6.78D+01 2.11D+00.
 AX will form    36 AO Fock derivatives at one time.
     36 vectors produced by pass  1 Test12= 6.89D-15 2.56D-09 XBig12= 1.97D+00 1.76D-01.
     36 vectors produced by pass  2 Test12= 6.89D-15 2.56D-09 XBig12= 1.91D-02 1.98D-02.
     36 vectors produced by pass  3 Test12= 6.89D-15 2.56D-09 XBig12= 3.05D-05 6.27D-04.
     36 vectors produced by pass  4 Test12= 6.89D-15 2.56D-09 XBig12= 2.21D-08 1.67D-05.
     15 vectors produced by pass  5 Test12= 6.89D-15 2.56D-09 XBig12= 1.49D-11 4.33D-07.
      3 vectors produced by pass  6 Test12= 6.89D-15 2.56D-09 XBig12= 5.91D-15 7.51D-09.
 InvSVY:  IOpt=1 It=  1 EMax= 5.33D-15
 Solved reduced A of dimension   198 with    39 vectors.
 Isotropic polarizability for W=    0.000000       42.20 Bohr**3.
 End of Minotr F.D. properties file   721 does not exist.
 End of Minotr F.D. properties file   722 does not exist.
 End of Minotr F.D. properties file   788 does not exist.

 **********************************************************************

            Population analysis using the SCF density.

 **********************************************************************

 Orbital symmetries:
 Alpha Orbitals:
       Occupied  (A) (A) (A) (A) (A) (A) (A) (A) (A) (A) (A) (A)
                 (A) (A) (A) (A)
       Virtual   (A) (A) (A) (A) (A) (A) (A) (A) (A) (A) (A) (A)
                 (A) (A) (A) (A) (A) (A) (A) (A) (A) (A) (A) (A)
                 (A) (A) (A) (A) (A) (A) (A) (A) (A) (A) (A) (A)
                 (A) (A) (A) (A) (A) (A) (A) (A) (A) (A) (A) (A)
                 (A) (A) (A) (A) (A) (A) (A) (A) (A) (A) (A) (A)
                 (A) (A) (A) (A) (A) (A) (A) (A) (A) (A) (A) (A)
                 (A) (A) (A) (A) (A) (A) (A) (A) (A) (A) (A) (A)
 Beta  Orbitals:
       Occupied  (A) (A) (A) (A) (A) (A) (A) (A) (A) (A) (A) (A)
                 (A) (A) (A) (A)
       Virtual   (A) (A) (A) (A) (A) (A) (A) (A) (A) (A) (A) (A)
                 (A) (A) (A) (A) (A) (A) (A) (A) (A) (A) (A) (A)
                 (A) (A) (A) (A) (A) (A) (A) (A) (A) (A) (A) (A)
                 (A) (A) (A) (A) (A) (A) (A) (A) (A) (A) (A) (A)
                 (A) (A) (A) (A) (A) (A) (A) (A) (A) (A) (A) (A)
                 (A) (A) (A) (A) (A) (A) (A) (A) (A) (A) (A) (A)
                 (A) (A) (A) (A) (A) (A) (A) (A) (A) (A) (A) (A)
 The electronic state is 1-A.
 Alpha  occ. eigenvalues --  -14.34889 -14.29078  -6.75255  -6.72952  -0.88863
 Alpha  occ. eigenvalues --   -0.82324  -0.55186  -0.52383  -0.49414  -0.47022
 Alpha  occ. eigenvalues --   -0.40474  -0.38178  -0.32947  -0.32708  -0.31217
 Alpha  occ. eigenvalues --   -0.22050
 Alpha virt. eigenvalues --    0.02242   0.07393   0.08703   0.10916   0.13057
 Alpha virt. eigenvalues --    0.15930   0.18645   0.22648   0.23347   0.24888
 Alpha virt. eigenvalues --    0.26411   0.27664   0.42337   0.43477   0.45241
 Alpha virt. eigenvalues --    0.49783   0.53456   0.56911   0.64155   0.69704
 Alpha virt. eigenvalues --    0.72013   0.75117   0.79819   0.83012   0.84650
 Alpha virt. eigenvalues --    0.88224   0.88929   0.91768   0.93032   0.94550
 Alpha virt. eigenvalues --    0.95903   0.97028   1.01644   1.09178   1.16743
 Alpha virt. eigenvalues --    1.21746   1.30471   1.37118   1.39296   1.46060
 Alpha virt. eigenvalues --    1.49978   1.56442   1.58983   1.69489   1.71771
 Alpha virt. eigenvalues --    1.72992   1.76009   1.82487   1.97223   2.09267
 Alpha virt. eigenvalues --    2.15859   2.16610   2.18378   2.21187   2.27204
 Alpha virt. eigenvalues --    2.27818   2.31007   2.35966   2.39172   2.41736
 Alpha virt. eigenvalues --    2.45619   2.51610   2.54905   2.57548   2.60608
 Alpha virt. eigenvalues --    2.61860   2.63226   2.69454   2.73508   2.75306
 Alpha virt. eigenvalues --    2.94448   2.97160   3.11196   3.17248   3.24005
 Alpha virt. eigenvalues --    3.24594   3.28675   3.33937   3.57494   3.58848
 Alpha virt. eigenvalues --    3.64512   3.66952   4.21117   4.22974
  Beta  occ. eigenvalues --  -14.34889 -14.29078  -6.75255  -6.72952  -0.88863
  Beta  occ. eigenvalues --   -0.82324  -0.55186  -0.52383  -0.49414  -0.47022
  Beta  occ. eigenvalues --   -0.40474  -0.38178  -0.32947  -0.32708  -0.31217
  Beta  occ. eigenvalues --   -0.22050
  Beta virt. eigenvalues --    0.02242   0.07393   0.08703   0.10916   0.13057
  Beta virt. eigenvalues --    0.15930   0.18645   0.22648   0.23347   0.24888
  Beta virt. eigenvalues --    0.26411   0.27664   0.42337   0.43477   0.45241
  Beta virt. eigenvalues --    0.49783   0.53456   0.56911   0.64155   0.69704
  Beta virt. eigenvalues --    0.72013   0.75117   0.79819   0.83012   0.84650
  Beta virt. eigenvalues --    0.88224   0.88929   0.91768   0.93032   0.94550
  Beta virt. eigenvalues --    0.95903   0.97028   1.01644   1.09178   1.16743
  Beta virt. eigenvalues --    1.21746   1.30471   1.37118   1.39296   1.46060
  Beta virt. eigenvalues --    1.49978   1.56442   1.58983   1.69489   1.71771
  Beta virt. eigenvalues --    1.72992   1.76009   1.82487   1.97223   2.09267
  Beta virt. eigenvalues --    2.15859   2.16610   2.18378   2.21187   2.27204
  Beta virt. eigenvalues --    2.27818   2.31007   2.35966   2.39172   2.41736
  Beta virt. eigenvalues --    2.45619   2.51610   2.54905   2.57548   2.60608
  Beta virt. eigenvalues --    2.61860   2.63226   2.69454   2.73508   2.75306
  Beta virt. eigenvalues --    2.94448   2.97160   3.11196   3.17248   3.24005
  Beta virt. eigenvalues --    3.24594   3.28675   3.33937   3.57494   3.58848
  Beta virt. eigenvalues --    3.64512   3.66952   4.21117   4.22974
          Condensed to atoms (all electrons):
               1          2          3          4          5          6
     1  N    6.573649   0.398286  -0.056109   0.061683   0.001014  -0.025234
     2  B    0.398286   3.538506   0.000424   0.056812  -0.000816   0.410313
     3  N   -0.056109   0.000424   6.539140   0.471218   0.352165  -0.003181
     4  B    0.061683   0.056812   0.471218   3.489508  -0.041969  -0.001294
     5  H    0.001014  -0.000816   0.352165  -0.041969   0.478614   0.002917
     6  H   -0.025234   0.410313  -0.003181  -0.001294   0.002917   0.714064
     7  H   -0.024691   0.413015   0.000224  -0.003947  -0.000005  -0.022920
     8  H    0.347805  -0.030103   0.001418  -0.001262   0.000009   0.003299
     9  H    0.334490  -0.024046   0.015279  -0.001592  -0.000157  -0.004613
    10  H    0.001079   0.000604   0.360964  -0.035718  -0.029459   0.000056
    11  H   -0.008316  -0.007294  -0.025045   0.400498   0.004258   0.000568
    12  H   -0.051476   0.055813  -0.033001   0.359755  -0.004148  -0.009561
               7          8          9         10         11         12
     1  N   -0.024691   0.347805   0.334490   0.001079  -0.008316  -0.051476
     2  B    0.413015  -0.030103  -0.024046   0.000604  -0.007294   0.055813
     3  N    0.000224   0.001418   0.015279   0.360964  -0.025045  -0.033001
     4  B   -0.003947  -0.001262  -0.001592  -0.035718   0.400498   0.359755
     5  H   -0.000005   0.000009  -0.000157  -0.029459   0.004258  -0.004148
     6  H   -0.022920   0.003299  -0.004613   0.000056   0.000568  -0.009561
     7  H    0.704498  -0.004187   0.002955  -0.000013  -0.000074  -0.005930
     8  H   -0.004187   0.431451  -0.024297  -0.000031   0.000314   0.001325
     9  H    0.002955  -0.024297   0.423028   0.000080  -0.000070   0.002848
    10  H   -0.000013  -0.000031   0.000080   0.460616  -0.003713   0.002874
    11  H   -0.000074   0.000314  -0.000070  -0.003713   0.759767  -0.023246
    12  H   -0.005930   0.001325   0.002848   0.002874  -0.023246   0.773471
          Atomic-Atomic Spin Densities.
               1          2          3          4          5          6
     1  N   -0.000000   0.000000   0.000000  -0.000000  -0.000000  -0.000000
     2  B    0.000000   0.000000  -0.000000   0.000000   0.000000   0.000000
     3  N    0.000000  -0.000000  -0.000000  -0.000000   0.000000  -0.000000
     4  B   -0.000000   0.000000  -0.000000   0.000000   0.000000  -0.000000
     5  H   -0.000000   0.000000   0.000000   0.000000  -0.000000  -0.000000
     6  H   -0.000000   0.000000  -0.000000  -0.000000  -0.000000  -0.000000
     7  H   -0.000000  -0.000000  -0.000000   0.000000  -0.000000  -0.000000
     8  H   -0.000000   0.000000   0.000000   0.000000  -0.000000   0.000000
     9  H    0.000000  -0.000000  -0.000000  -0.000000  -0.000000   0.000000
    10  H   -0.000000  -0.000000  -0.000000   0.000000   0.000000  -0.000000
    11  H   -0.000000  -0.000000   0.000000   0.000000  -0.000000  -0.000000
    12  H   -0.000000  -0.000000  -0.000000  -0.000000  -0.000000  -0.000000
               7          8          9         10         11         12
     1  N   -0.000000  -0.000000   0.000000  -0.000000  -0.000000  -0.000000
     2  B   -0.000000   0.000000  -0.000000  -0.000000  -0.000000  -0.000000
     3  N   -0.000000   0.000000  -0.000000  -0.000000   0.000000  -0.000000
     4  B    0.000000   0.000000  -0.000000   0.000000   0.000000  -0.000000
     5  H   -0.000000  -0.000000  -0.000000   0.000000  -0.000000  -0.000000
     6  H   -0.000000   0.000000   0.000000  -0.000000  -0.000000  -0.000000
     7  H   -0.000000  -0.000000  -0.000000   0.000000  -0.000000  -0.000000
     8  H   -0.000000  -0.000000  -0.000000   0.000000  -0.000000  -0.000000
     9  H   -0.000000  -0.000000   0.000000   0.000000  -0.000000   0.000000
    10  H    0.000000   0.000000   0.000000   0.000000   0.000000   0.000000
    11  H   -0.000000  -0.000000  -0.000000   0.000000  -0.000000  -0.000000
    12  H   -0.000000  -0.000000   0.000000   0.000000  -0.000000  -0.000000
 Mulliken charges and spin densities:
               1          2
     1  N   -0.552180  -0.000000
     2  B    0.188488   0.000000
     3  N   -0.623495  -0.000000
     4  B    0.246308   0.000000
     5  H    0.237577  -0.000000
     6  H   -0.064414  -0.000000
     7  H   -0.058926  -0.000000
     8  H    0.274260  -0.000000
     9  H    0.276094   0.000000
    10  H    0.242659   0.000000
    11  H   -0.097647  -0.000000
    12  H   -0.068724  -0.000000
 Sum of Mulliken charges =  -0.00000  -0.00000
 Mulliken charges and spin densities with hydrogens summed into heavy atoms:
               1          2
     1  N   -0.001825  -0.000000
     2  B    0.065148   0.000000
     3  N   -0.143259  -0.000000
     4  B    0.079936  -0.000000
 APT charges:
               1
     1  N   -0.712238
     2  B    0.724109
     3  N   -0.698848
     4  B    0.808012
     5  H    0.162077
     6  H   -0.186584
     7  H   -0.180973
     8  H    0.175075
     9  H    0.195299
    10  H    0.175001
    11  H   -0.203750
    12  H   -0.257180
 Sum of APT charges =   0.00000
 APT charges with hydrogens summed into heavy atoms:
               1
     1  N   -0.341864
     2  B    0.356552
     3  N   -0.361771
     4  B    0.347083
 Electronic spatial extent (au):  <R**2>=            341.6987
 Charge=             -0.0000 electrons
 Dipole moment (field-independent basis, Debye):
    X=             -0.0096    Y=             -1.5452    Z=             -1.7967  Tot=              2.3698
 Quadrupole moment (field-independent basis, Debye-Ang):
   XX=            -25.0390   YY=            -26.1674   ZZ=            -27.9264
   XY=             -2.9354   XZ=              1.3477   YZ=             -0.1098
 Traceless Quadrupole moment (field-independent basis, Debye-Ang):
   XX=              1.3386   YY=              0.2102   ZZ=             -1.5488
   XY=             -2.9354   XZ=              1.3477   YZ=             -0.1098
 Octapole moment (field-independent basis, Debye-Ang**2):
  XXX=            -16.2967  YYY=            -10.2343  ZZZ=            -11.1119  XYY=             -0.2468
  XXY=             -7.7015  XXZ=             -4.8713  XZZ=             -1.4525  YZZ=             -1.9414
  YYZ=             -4.1203  XYZ=              0.5638
 Hexadecapole moment (field-independent basis, Debye-Ang**3):
 XXXX=           -262.7419 YYYY=            -98.2858 ZZZZ=            -91.3646 XXXY=             -9.0335
 XXXZ=              8.4322 YYYX=            -18.7232 YYYZ=              1.0767 ZZZX=              3.7326
 ZZZY=              2.9201 XXYY=            -62.0537 XXZZ=            -63.6138 YYZZ=            -30.9828
 XXYZ=             -3.9879 YYXZ=              3.9326 ZZXY=             -6.7769
 N-N= 1.145879248356D+02 E-N=-6.096172585078D+02  KE= 1.625528814091D+02
  Exact polarizability:  48.630   2.987  40.224   1.303  -2.471  37.748
 Approx polarizability:  61.479   2.683  55.097   1.007  -2.608  51.862
                          Isotropic Fermi Contact Couplings
        Atom                 a.u.       MegaHertz       Gauss      10(-4) cm-1
     1  N(14)             -0.00000      -0.00000      -0.00000      -0.00000
     2  B(11)              0.00000       0.00000       0.00000       0.00000
     3  N(14)              0.00000       0.00000       0.00000       0.00000
     4  B(11)              0.00000       0.00000       0.00000       0.00000
     5  H(1)              -0.00000      -0.00000      -0.00000      -0.00000
     6  H(1)              -0.00000      -0.00000      -0.00000      -0.00000
     7  H(1)              -0.00000      -0.00000      -0.00000      -0.00000
     8  H(1)              -0.00000      -0.00000      -0.00000      -0.00000
     9  H(1)              -0.00000      -0.00000      -0.00000      -0.00000
    10  H(1)               0.00000       0.00000       0.00000       0.00000
    11  H(1)              -0.00000      -0.00000      -0.00000      -0.00000
    12  H(1)              -0.00000      -0.00000      -0.00000      -0.00000
 --------------------------------------------------------
       Center         ----  Spin Dipole Couplings  ----
                      3XX-RR        3YY-RR        3ZZ-RR
 --------------------------------------------------------
     1   Atom        0.000000      0.000000      0.000000
     2   Atom        0.000000      0.000000      0.000000
     3   Atom        0.000000      0.000000      0.000000
     4   Atom        0.000000      0.000000      0.000000
     5   Atom        0.000000      0.000000      0.000000
     6   Atom        0.000000      0.000000      0.000000
     7   Atom        0.000000      0.000000      0.000000
     8   Atom        0.000000      0.000000      0.000000
     9   Atom        0.000000      0.000000      0.000000
    10   Atom        0.000000      0.000000      0.000000
    11   Atom        0.000000      0.000000      0.000000
    12   Atom        0.000000      0.000000      0.000000
 --------------------------------------------------------
                        XY            XZ            YZ
 --------------------------------------------------------
     1   Atom        0.000000      0.000000      0.000000
     2   Atom        0.000000      0.000000      0.000000
     3   Atom        0.000000      0.000000      0.000000
     4   Atom        0.000000      0.000000      0.000000
     5   Atom        0.000000      0.000000      0.000000
     6   Atom        0.000000      0.000000      0.000000
     7   Atom        0.000000      0.000000      0.000000
     8   Atom        0.000000      0.000000      0.000000
     9   Atom        0.000000      0.000000      0.000000
    10   Atom        0.000000      0.000000      0.000000
    11   Atom        0.000000      0.000000      0.000000
    12   Atom        0.000000      0.000000      0.000000
 --------------------------------------------------------


 ---------------------------------------------------------------------------------
              Anisotropic Spin Dipole Couplings in Principal Axis System
 ---------------------------------------------------------------------------------

       Atom             a.u.   MegaHertz   Gauss  10(-4) cm-1        Axes

              Baa     0.0000     0.000     0.000     0.000  1.0000  0.0000  0.0000
     1 N(14)  Bbb     0.0000     0.000     0.000     0.000 -0.0000  1.0000  0.0000
              Bcc     0.0000     0.000     0.000     0.000  0.0000  0.0000  1.0000
 
              Baa     0.0000     0.000     0.000     0.000  1.0000  0.0000  0.0000
     2 B(11)  Bbb     0.0000     0.000     0.000     0.000 -0.0000  1.0000  0.0000
              Bcc     0.0000     0.000     0.000     0.000  0.0000  0.0000  1.0000
 
              Baa     0.0000     0.000     0.000     0.000  1.0000  0.0000  0.0000
     3 N(14)  Bbb     0.0000     0.000     0.000     0.000 -0.0000  1.0000  0.0000
              Bcc     0.0000     0.000     0.000     0.000  0.0000  0.0000  1.0000
 
              Baa     0.0000     0.000     0.000     0.000  1.0000  0.0000  0.0000
     4 B(11)  Bbb     0.0000     0.000     0.000     0.000 -0.0000  1.0000  0.0000
              Bcc     0.0000     0.000     0.000     0.000  0.0000  0.0000  1.0000
 
              Baa     0.0000     0.000     0.000     0.000  1.0000  0.0000  0.0000
     5 H(1)   Bbb     0.0000     0.000     0.000     0.000 -0.0000  1.0000  0.0000
              Bcc     0.0000     0.000     0.000     0.000  0.0000  0.0000  1.0000
 
              Baa     0.0000     0.000     0.000     0.000  1.0000  0.0000  0.0000
     6 H(1)   Bbb     0.0000     0.000     0.000     0.000 -0.0000  1.0000  0.0000
              Bcc     0.0000     0.000     0.000     0.000  0.0000  0.0000  1.0000
 
              Baa     0.0000     0.000     0.000     0.000  1.0000  0.0000  0.0000
     7 H(1)   Bbb     0.0000     0.000     0.000     0.000 -0.0000  1.0000  0.0000
              Bcc     0.0000     0.000     0.000     0.000  0.0000  0.0000  1.0000
 
              Baa     0.0000     0.000     0.000     0.000  1.0000  0.0000  0.0000
     8 H(1)   Bbb     0.0000     0.000     0.000     0.000 -0.0000  1.0000  0.0000
              Bcc     0.0000     0.000     0.000     0.000  0.0000  0.0000  1.0000
 
              Baa     0.0000     0.000     0.000     0.000  1.0000  0.0000  0.0000
     9 H(1)   Bbb     0.0000     0.000     0.000     0.000 -0.0000  1.0000  0.0000
              Bcc     0.0000     0.000     0.000     0.000  0.0000  0.0000  1.0000
 
              Baa     0.0000     0.000     0.000     0.000  1.0000  0.0000  0.0000
    10 H(1)   Bbb     0.0000     0.000     0.000     0.000 -0.0000  1.0000  0.0000
              Bcc     0.0000     0.000     0.000     0.000  0.0000  0.0000  1.0000
 
              Baa     0.0000     0.000     0.000     0.000  1.0000  0.0000  0.0000
    11 H(1)   Bbb     0.0000     0.000     0.000     0.000 -0.0000  1.0000  0.0000
              Bcc     0.0000     0.000     0.000     0.000  0.0000  0.0000  1.0000
 
              Baa     0.0000     0.000     0.000     0.000  1.0000  0.0000  0.0000
    12 H(1)   Bbb     0.0000     0.000     0.000     0.000 -0.0000  1.0000  0.0000
              Bcc     0.0000     0.000     0.000     0.000  0.0000  0.0000  1.0000
 

 ---------------------------------------------------------------------------------

 Calling FoFJK, ICntrl=    100127 FMM=F ISym2X=0 I1Cent= 0 IOpClX= 1 NMat=1 NMatS=1 NMatT=0.
 ***** Axes restored to original set *****
 -------------------------------------------------------------------
 Center     Atomic                   Forces (Hartrees/Bohr)
 Number     Number              X              Y              Z
 -------------------------------------------------------------------
      1        7          -0.002129885    0.008793345   -0.000789211
      2        5           0.001028899    0.002721414    0.002209564
      3        7           0.012815128   -0.019096718    0.004725670
      4        5           0.002528850   -0.005834075    0.006432153
      5        1          -0.015712913   -0.000151833   -0.002789215
      6        1           0.003535571   -0.004619889   -0.000756151
      7        1          -0.002871873    0.001124260   -0.005409132
      8        1          -0.002024011    0.004483247    0.000484350
      9        1          -0.000151616   -0.006245283    0.002561822
     10        1           0.005207158    0.005220330    0.001435146
     11        1          -0.008770705    0.005191693   -0.003374769
     12        1           0.006545398    0.008413508   -0.004730227
 -------------------------------------------------------------------
 Cartesian Forces:  Max     0.019096718 RMS     0.006312422
 FormGI is forming the generalized inverse of G from B-inverse, IUseBI=4.

 GradGradGradGradGradGradGradGradGradGradGradGradGradGradGradGradGradGrad
 Berny optimization.
 Internal  Forces:  Max     0.014106098 RMS     0.003992867
 Search for a saddle point.
 Step number   1 out of a maximum of   74
 All quantities printed in internal units (Hartrees-Bohrs-Radians)
 Swapping is turned off.
 Second derivative matrix not updated -- analytic derivatives used.
 ITU=  0
     Eigenvalues ---   -0.01464  -0.00117   0.00286   0.00593   0.00758
     Eigenvalues ---    0.01206   0.01271   0.01890   0.02423   0.03426
     Eigenvalues ---    0.03959   0.04313   0.04790   0.05733   0.06688
     Eigenvalues ---    0.06871   0.07990   0.09631   0.10878   0.11492
     Eigenvalues ---    0.20781   0.25976   0.26368   0.26386   0.34265
     Eigenvalues ---    0.40219   0.42837   0.46535   0.48491   0.49221
 Eigenvectors required to have negative eigenvalues:
                          R2        R7        D27       D25       D30
   1                    0.62352   0.56861  -0.29467  -0.18438  -0.14167
                          D24       D8        D23       D9        D4
   1                   -0.13948  -0.12441   0.10492  -0.09023   0.09018
 RFO step:  Lambda0=1.448738287D-04 Lambda=-8.98578426D-03.
 Linear search not attempted -- option 19 set.
 Maximum step size (   0.300) exceeded in Quadratic search.
    -- Step size scaled by   0.420
 Iteration  1 RMS(Cart)=  0.04411082 RMS(Int)=  0.00727555
 Iteration  2 RMS(Cart)=  0.00715588 RMS(Int)=  0.00124108
 Iteration  3 RMS(Cart)=  0.00002498 RMS(Int)=  0.00124086
 Iteration  4 RMS(Cart)=  0.00000001 RMS(Int)=  0.00124086
 Variable       Old X    -DE/DX   Delta X   Delta X   Delta X     New X
                                 (Linear)    (Quad)   (Total)
    R1        2.70117   0.00452   0.00000   0.01513   0.01532   2.71649
    R2        3.83856   0.00425   0.00000   0.02197   0.02222   3.86078
    R3        1.90135   0.00483   0.00000   0.00284   0.00284   1.90419
    R4        1.89775   0.00534   0.00000   0.00357   0.00357   1.90132
    R5        2.23117   0.00576   0.00000   0.00993   0.00993   2.24111
    R6        2.23461   0.00436   0.00000   0.00748   0.00748   2.24209
    R7        3.78678  -0.00247   0.00000  -0.25548  -0.25572   3.53107
    R8        2.69407   0.01396   0.00000  -0.00820  -0.00820   2.68587
    R9        1.93700  -0.01411   0.00000  -0.01642  -0.01642   1.92057
   R10        1.91424  -0.00632   0.00000  -0.00655  -0.00655   1.90769
   R11        2.22690   0.00935   0.00000   0.01088   0.01088   2.23778
   R12        2.27187   0.00876   0.00000   0.02034   0.02004   2.29191
    A1        1.40825   0.00086   0.00000  -0.05886  -0.05828   1.34997
    A2        2.11057  -0.00044   0.00000   0.00244   0.00248   2.11305
    A3        2.14683  -0.00039   0.00000  -0.00190  -0.00167   2.14516
    A4        1.91766   0.00052   0.00000   0.01552   0.01515   1.93280
    A5        1.73893  -0.00224   0.00000   0.03009   0.02943   1.76836
    A6        1.96225   0.00108   0.00000   0.00471   0.00430   1.96655
    A7        2.06555   0.00117   0.00000  -0.00054  -0.00147   2.06407
    A8        2.06948  -0.00038   0.00000  -0.00200  -0.00148   2.06800
    A9        1.59123   0.00002   0.00000   0.06285   0.06294   1.65417
   A10        2.11942  -0.00012   0.00000  -0.00513  -0.00525   2.11417
   A11        1.67206  -0.00018   0.00000   0.01177   0.01163   1.68369
   A12        1.67082  -0.00241   0.00000  -0.04250  -0.04269   1.62814
   A13        2.11992   0.00202   0.00000   0.03254   0.02716   2.14708
   A14        2.13049   0.00014   0.00000   0.01199   0.00661   2.13710
   A15        1.99072  -0.00243   0.00000   0.00725   0.00183   1.99255
   A16        1.76828   0.00782   0.00000   0.06098   0.06062   1.82890
   A17        1.73359  -0.00228   0.00000  -0.01004  -0.01152   1.72207
   A18        1.69485  -0.00442   0.00000  -0.05121  -0.05127   1.64358
   A19        2.03607   0.00050   0.00000   0.02600   0.02561   2.06168
   A20        2.06446   0.00018   0.00000  -0.00869  -0.00754   2.05692
   A21        2.05008  -0.00133   0.00000  -0.01782  -0.01863   2.03145
   A22        1.52276   0.00273   0.00000   0.04666   0.04613   1.56889
    D1       -1.50871   0.00170   0.00000  -0.04096  -0.04084  -1.54955
    D2        1.88432  -0.00116   0.00000  -0.00731  -0.00712   1.87720
    D3        0.18834   0.00162   0.00000   0.00675   0.00706   0.19540
    D4        2.89549   0.00061   0.00000  -0.02517  -0.02531   2.87018
    D5        0.00534  -0.00225   0.00000   0.00849   0.00841   0.01375
    D6       -1.69065   0.00053   0.00000   0.02255   0.02259  -1.66806
    D7        0.15792  -0.00039   0.00000  -0.04224  -0.04221   0.11572
    D8       -2.73223  -0.00325   0.00000  -0.00859  -0.00849  -2.74071
    D9        1.85497  -0.00047   0.00000   0.00547   0.00570   1.86067
   D10        1.78840  -0.00024   0.00000   0.00735   0.00681   1.79520
   D11       -2.40436   0.00193   0.00000   0.05029   0.04983  -2.35454
   D12       -0.31985  -0.00114   0.00000   0.01612   0.01633  -0.30352
   D13       -2.40672  -0.00042   0.00000  -0.00877  -0.00918  -2.41590
   D14       -0.31630   0.00175   0.00000   0.03416   0.03385  -0.28245
   D15        1.76822  -0.00131   0.00000  -0.00000   0.00034   1.76856
   D16       -0.34341  -0.00012   0.00000   0.01764   0.01752  -0.32588
   D17        1.74702   0.00204   0.00000   0.06057   0.06055   1.80756
   D18       -2.45165  -0.00102   0.00000   0.02640   0.02704  -2.42461
   D19       -0.31785  -0.00189   0.00000  -0.00668  -0.00695  -0.32480
   D20        1.75295  -0.00073   0.00000   0.00169   0.00248   1.75543
   D21       -2.39252  -0.00132   0.00000  -0.00922  -0.00854  -2.40106
   D22       -1.27667  -0.00289   0.00000   0.01337   0.01401  -1.26266
   D23       -3.13690  -0.00494   0.00000  -0.01973  -0.02001   3.12627
   D24        0.54781  -0.00332   0.00000  -0.01337  -0.01318   0.53463
   D25        2.19075  -0.00145   0.00000  -0.18302  -0.18274   2.00800
   D26        0.33052  -0.00351   0.00000  -0.21612  -0.21677   0.11375
   D27       -2.26796  -0.00189   0.00000  -0.20976  -0.20993  -2.47789
   D28        0.22343   0.00131   0.00000   0.00284   0.00284   0.22628
   D29       -1.64330  -0.00526   0.00000  -0.03539  -0.03540  -1.67870
   D30        2.04575  -0.00420   0.00000  -0.04256  -0.04236   2.00340
         Item               Value     Threshold  Converged?
 Maximum Force            0.014106     0.000450     NO 
 RMS     Force            0.003993     0.000300     NO 
 Maximum Displacement     0.156889     0.001800     NO 
 RMS     Displacement     0.047277     0.001200     NO 
 Predicted change in Energy=-4.030883D-03
 GradGradGradGradGradGradGradGradGradGradGradGradGradGradGradGradGradGrad

                          Input orientation:                          
 ---------------------------------------------------------------------
 Center     Atomic      Atomic             Coordinates (Angstroms)
 Number     Number       Type             X           Y           Z
 ---------------------------------------------------------------------
      1          7           0        1.304626    0.280650    0.785384
      2          5           0        2.117349    0.168577   -0.395015
      3          7           0        0.677692   -2.379072    0.327872
      4          5           0        0.327736   -1.151032   -0.296269
      5          1           0        1.601305   -2.796074    0.250652
      6          1           0        2.992858   -0.631371   -0.400139
      7          1           0        2.087075    1.049955   -1.188711
      8          1           0        0.711843    1.081741    0.934467
      9          1           0        1.505093   -0.217265    1.636384
     10          1           0       -0.001556   -2.962646    0.793887
     11          1           0       -0.779069   -0.752040   -0.161840
     12          1           0        0.880417   -0.867087   -1.337837
 ---------------------------------------------------------------------
                    Distance matrix (angstroms):
                    1          2          3          4          5
     1  N    0.000000
     2  B    1.437505   0.000000
     3  N    2.770647   3.014249   0.000000
     4  B    2.043038   2.225721   1.421304   0.000000
     5  H    3.136907   3.077717   1.016324   2.151108   0.000000
     6  H    2.255521   1.185942   2.990728   2.717299   2.654408
     7  H    2.258563   1.186464   4.005573   2.955685   4.135175
     8  H    1.007653   2.139355   3.513738   2.578280   4.036854
     9  H    1.006135   2.156459   2.658986   2.448109   2.929123
    10  H    3.496449   3.963308   1.009508   2.139818   1.700593
    11  H    2.511069   3.048138   2.238125   1.184180   3.164555
    12  H    2.450576   1.868559   2.258713   1.212826   2.600763
                    6          7          8          9         10
     6  H    0.000000
     7  H    2.066191   0.000000
     8  H    3.149437   2.529853   0.000000
     9  H    2.555847   3.150510   1.676112   0.000000
    10  H    3.978324   4.939033   4.109230   3.242979   0.000000
    11  H    3.781373   3.537857   2.605276   2.955840   2.530755
    12  H    2.323197   2.270091   2.998285   3.107810   3.116648
                   11         12
    11  H    0.000000
    12  H    2.037180   0.000000
 Stoichiometry    B2H8N2
 Framework group  C1[X(B2H8N2)]
 Deg. of freedom    30
 Full point group                 C1      NOp   1
 Largest Abelian subgroup         C1      NOp   1
 Largest concise Abelian subgroup C1      NOp   1
                         Standard orientation:                         
 ---------------------------------------------------------------------
 Center     Atomic      Atomic             Coordinates (Angstroms)
 Number     Number       Type             X           Y           Z
 ---------------------------------------------------------------------
      1          7           0        1.045387   -0.678080   -0.256987
      2          5           0        1.327870    0.718753   -0.068622
      3          7           0       -1.614520    0.097242   -0.272975
      4          5           0       -0.615161   -0.015015    0.731408
      5          1           0       -1.609916    0.827701   -0.979603
      6          1           0        0.961121    1.482713   -0.898272
      7          1           0        2.150661    1.027239    0.728591
      8          1           0        1.523749   -1.382617    0.281680
      9          1           0        0.639358   -1.044648   -1.101425
     10          1           0       -2.445184   -0.476420   -0.277028
     11          1           0       -0.714089   -0.891190    1.521860
     12          1           0       -0.085315    1.004398    1.120002
 ---------------------------------------------------------------------
 Rotational constants (GHZ):          13.8650563           4.6786504           4.4211271
 Standard basis: 6-31G(d,p) (6D, 7F)
 There are   100 symmetry adapted cartesian basis functions of A   symmetry.
 There are   100 symmetry adapted basis functions of A   symmetry.
   100 basis functions,   168 primitive gaussians,   100 cartesian basis functions
    16 alpha electrons       16 beta electrons
       nuclear repulsion energy       114.4046295916 Hartrees.
 NAtoms=   12 NActive=   12 NUniq=   12 SFac= 1.00D+00 NAtFMM=   60 NAOKFM=F Big=F
 Integral buffers will be    131072 words long.
 Raffenetti 2 integral format.
 Two-electron integral symmetry is turned on.
 One-electron integrals computed using PRISM.
 NBasis=   100 RedAO= T EigKep=  5.60D-03  NBF=   100
 NBsUse=   100 1.00D-06 EigRej= -1.00D+00 NBFU=   100
 Initial guess from the checkpoint file:  "/scratch/1311818/Gau-25041.chk"
 B after Tr=     0.000000   -0.000000   -0.000000
         Rot=    0.998992    0.043148   -0.003422   -0.011936 Ang=   5.15 deg.
 Initial guess <Sx>= 0.0000 <Sy>= 0.0000 <Sz>= 0.0000 <S**2>= 0.0000 S= 0.0000
 ExpMin= 1.27D-01 ExpMax= 4.17D+03 ExpMxC= 6.27D+02 IAcc=2 IRadAn=         4 AccDes= 0.00D+00
 Harris functional with IExCor=  402 and IRadAn=       4 diagonalized for initial guess.
 HarFok:  IExCor=  402 AccDes= 0.00D+00 IRadAn=         4 IDoV= 1 UseB2=F ITyADJ=14
 ICtDFT=  3500011 ScaDFX=  1.000000  1.000000  1.000000  1.000000
 FoFCou: FMM=F IPFlag=           0 FMFlag=      100000 FMFlg1=           0
         NFxFlg=           0 DoJE=T BraDBF=F KetDBF=T FulRan=T
         wScrn=  0.000000 ICntrl=       500 IOpCl=  0 I1Cent=   200000004 NGrid=           0
         NMat0=    1 NMatS0=      1 NMatT0=    0 NMatD0=    1 NMtDS0=    0 NMtDT0=    0
 Petite list used in FoFCou.
 Keep R1 and R2 ints in memory in canonical form, NReq=29209870.
 Requested convergence on RMS density matrix=1.00D-08 within1024 cycles.
 Requested convergence on MAX density matrix=1.00D-06.
 Requested convergence on             energy=1.00D-06.
 No special actions if energy rises.
 Integral accuracy reduced to 1.0D-05 until final iterations.
 Initial convergence to 1.0D-05 achieved.  Increase integral accuracy.
 SCF Done:  E(UB3LYP) =  -164.078334159     A.U. after   11 cycles
            NFock= 11  Conv=0.78D-08     -V/T= 2.0096
 <Sx>= 0.0000 <Sy>= 0.0000 <Sz>= 0.0000 <S**2>= 0.0000 S= 0.0000
 <L.S>= 0.000000000000E+00
 Annihilation of the first spin contaminant:
 S**2 before annihilation     0.0000,   after    -0.0000
 DoSCS=F DFT=T ScalE2(SS,OS)=  1.000000  1.000000
 Range of M.O.s used for correlation:     1   100
 NBasis=   100 NAE=    16 NBE=    16 NFC=     0 NFV=     0
 NROrb=    100 NOA=    16 NOB=    16 NVA=    84 NVB=    84
 Symmetrizing basis deriv contribution to polar:
 IMax=3 JMax=2 DiffMx= 0.00D+00
 G2DrvN: will do    13 centers at a time, making    1 passes.
 Calling FoFCou, ICntrl=  3107 FMM=F I1Cent=   0 AccDes= 0.00D+00.
 End of G2Drv F.D. properties file   721 does not exist.
 End of G2Drv F.D. properties file   722 does not exist.
 End of G2Drv F.D. properties file   788 does not exist.
          IDoAtm=111111111111
          Differentiating once with respect to electric field.
                with respect to dipole field.
          Differentiating once with respect to nuclear coordinates.
 Keep R1 and R2 ints in memory in canonical form, NReq=29207815.
          There are    39 degrees of freedom in the 1st order CPHF.  IDoFFX=6 NUNeed=     3.
     36 vectors produced by pass  0 Test12= 6.89D-15 2.56D-09 XBig12= 6.99D+01 2.01D+00.
 AX will form    36 AO Fock derivatives at one time.
     36 vectors produced by pass  1 Test12= 6.89D-15 2.56D-09 XBig12= 2.31D+00 1.87D-01.
     36 vectors produced by pass  2 Test12= 6.89D-15 2.56D-09 XBig12= 1.89D-02 1.81D-02.
     36 vectors produced by pass  3 Test12= 6.89D-15 2.56D-09 XBig12= 3.08D-05 6.30D-04.
     36 vectors produced by pass  4 Test12= 6.89D-15 2.56D-09 XBig12= 2.56D-08 1.89D-05.
     15 vectors produced by pass  5 Test12= 6.89D-15 2.56D-09 XBig12= 1.98D-11 4.29D-07.
      3 vectors produced by pass  6 Test12= 6.89D-15 2.56D-09 XBig12= 8.81D-15 8.85D-09.
 InvSVY:  IOpt=1 It=  1 EMax= 2.66D-15
 Solved reduced A of dimension   198 with    39 vectors.
 Isotropic polarizability for W=    0.000000       42.34 Bohr**3.
 End of Minotr F.D. properties file   721 does not exist.
 End of Minotr F.D. properties file   722 does not exist.
 End of Minotr F.D. properties file   788 does not exist.
 Calling FoFJK, ICntrl=    100127 FMM=F ISym2X=0 I1Cent= 0 IOpClX= 1 NMat=1 NMatS=1 NMatT=0.
 ***** Axes restored to original set *****
 -------------------------------------------------------------------
 Center     Atomic                   Forces (Hartrees/Bohr)
 Number     Number              X              Y              Z
 -------------------------------------------------------------------
      1        7          -0.001788343    0.005918074    0.000203420
      2        5          -0.000301304    0.000705516   -0.000164311
      3        7           0.006737731   -0.012267564    0.002640194
      4        5           0.000855644   -0.003396371    0.005106747
      5        1          -0.008896409   -0.000343421   -0.002834679
      6        1           0.002553623   -0.002446977   -0.000254329
      7        1          -0.001740639    0.000705204   -0.003200446
      8        1          -0.001226012    0.002611766    0.000340122
      9        1           0.000160710   -0.004025054    0.001373218
     10        1           0.003328479    0.003264440    0.001761797
     11        1          -0.005184670    0.003353974   -0.003247367
     12        1           0.005501189    0.005920414   -0.001724366
 -------------------------------------------------------------------
 Cartesian Forces:  Max     0.012267564 RMS     0.003951384
 FormGI is forming the generalized inverse of G from B-inverse, IUseBI=4.

 GradGradGradGradGradGradGradGradGradGradGradGradGradGradGradGradGradGrad
 Berny optimization.
 Internal  Forces:  Max     0.009050881 RMS     0.002504136
 Search for a saddle point.
 Step number   2 out of a maximum of   74
 All quantities printed in internal units (Hartrees-Bohrs-Radians)
 Swapping is turned off.
 Second derivative matrix not updated -- analytic derivatives used.
 ITU=  0  0
     Eigenvalues ---   -0.01552  -0.00012   0.00311   0.00620   0.00787
     Eigenvalues ---    0.01096   0.01135   0.02259   0.02382   0.03560
     Eigenvalues ---    0.03930   0.04404   0.04867   0.05651   0.06698
     Eigenvalues ---    0.06797   0.07969   0.09303   0.10582   0.10992
     Eigenvalues ---    0.19745   0.25345   0.25665   0.25702   0.32658
     Eigenvalues ---    0.40505   0.45413   0.47556   0.48034   0.48650
 Eigenvectors required to have negative eigenvalues:
                          R2        R7        D27       D30       D24
   1                    0.63247   0.57870  -0.23443  -0.15128  -0.14999
                          D8        D25       D23       D4        A17
   1                   -0.14126  -0.13584   0.10499   0.10441  -0.09165
 RFO step:  Lambda0=4.035923652D-06 Lambda=-5.49952720D-03.
 Linear search not attempted -- option 19 set.
 Maximum step size (   0.300) exceeded in Quadratic search.
    -- Step size scaled by   0.570
 Iteration  1 RMS(Cart)=  0.04585038 RMS(Int)=  0.02578932
 Iteration  2 RMS(Cart)=  0.01991540 RMS(Int)=  0.00392521
 Iteration  3 RMS(Cart)=  0.00089067 RMS(Int)=  0.00380804
 Iteration  4 RMS(Cart)=  0.00000203 RMS(Int)=  0.00380804
 Iteration  5 RMS(Cart)=  0.00000002 RMS(Int)=  0.00380804
 Variable       Old X    -DE/DX   Delta X   Delta X   Delta X     New X
                                 (Linear)    (Quad)   (Total)
    R1        2.71649   0.00319   0.00000   0.01467   0.01489   2.73138
    R2        3.86078   0.00262   0.00000   0.07065   0.07073   3.93151
    R3        1.90419   0.00285   0.00000   0.00184   0.00184   1.90602
    R4        1.90132   0.00319   0.00000   0.00255   0.00255   1.90386
    R5        2.24111   0.00354   0.00000   0.00982   0.00982   2.25093
    R6        2.24209   0.00271   0.00000   0.00766   0.00766   2.24976
    R7        3.53107  -0.00246   0.00000  -0.23707  -0.23729   3.29378
    R8        2.68587   0.00905   0.00000  -0.01222  -0.01222   2.67365
    R9        1.92057  -0.00773   0.00000  -0.01148  -0.01148   1.90909
   R10        1.90769  -0.00331   0.00000  -0.00328  -0.00328   1.90442
   R11        2.23778   0.00561   0.00000   0.00789   0.00789   2.24567
   R12        2.29191   0.00562   0.00000   0.01692   0.01683   2.30874
    A1        1.34997   0.00059   0.00000  -0.05489  -0.05473   1.29524
    A2        2.11305  -0.00028   0.00000   0.00392   0.00430   2.11735
    A3        2.14516  -0.00034   0.00000  -0.00354  -0.00364   2.14152
    A4        1.93280   0.00024   0.00000   0.00729   0.00697   1.93977
    A5        1.76836  -0.00143   0.00000   0.03424   0.03391   1.80227
    A6        1.96655   0.00078   0.00000   0.00413   0.00377   1.97032
    A7        2.06407   0.00072   0.00000  -0.00263  -0.00404   2.06003
    A8        2.06800  -0.00022   0.00000  -0.00218  -0.00166   2.06634
    A9        1.65417  -0.00014   0.00000   0.06433   0.06436   1.71854
   A10        2.11417  -0.00011   0.00000  -0.00819  -0.00844   2.10573
   A11        1.68369   0.00013   0.00000   0.01187   0.01151   1.69520
   A12        1.62814  -0.00133   0.00000  -0.02999  -0.02990   1.59823
   A13        2.14708   0.00121   0.00000   0.02897   0.01182   2.15890
   A14        2.13710  -0.00001   0.00000   0.00372  -0.01345   2.12365
   A15        1.99255  -0.00126   0.00000   0.00419  -0.01338   1.97917
   A16        1.82890   0.00510   0.00000   0.06755   0.06662   1.89552
   A17        1.72207  -0.00161   0.00000  -0.01589  -0.01745   1.70462
   A18        1.64358  -0.00295   0.00000  -0.06342  -0.06337   1.58021
   A19        2.06168   0.00047   0.00000   0.03190   0.03138   2.09305
   A20        2.05692   0.00012   0.00000  -0.01748  -0.01527   2.04165
   A21        2.03145  -0.00104   0.00000  -0.01105  -0.01273   2.01872
   A22        1.56889   0.00203   0.00000   0.06102   0.06074   1.62964
    D1       -1.54955   0.00078   0.00000  -0.05362  -0.05376  -1.60331
    D2        1.87720  -0.00066   0.00000  -0.00336  -0.00352   1.87369
    D3        0.19540   0.00098   0.00000  -0.00438  -0.00471   0.19068
    D4        2.87018   0.00015   0.00000  -0.03110  -0.03106   2.83912
    D5        0.01375  -0.00129   0.00000   0.01916   0.01918   0.03293
    D6       -1.66806   0.00035   0.00000   0.01814   0.01799  -1.65007
    D7        0.11572  -0.00051   0.00000  -0.04638  -0.04627   0.06944
    D8       -2.74071  -0.00195   0.00000   0.00387   0.00397  -2.73674
    D9        1.86067  -0.00031   0.00000   0.00285   0.00278   1.86344
   D10        1.79520  -0.00019   0.00000   0.00887   0.00761   1.80281
   D11       -2.35454   0.00143   0.00000   0.06060   0.05929  -2.29525
   D12       -0.30352  -0.00051   0.00000   0.03340   0.03276  -0.27076
   D13       -2.41590  -0.00032   0.00000  -0.00424  -0.00465  -2.42055
   D14       -0.28245   0.00130   0.00000   0.04749   0.04703  -0.23543
   D15        1.76856  -0.00064   0.00000   0.02029   0.02050   1.78906
   D16       -0.32588  -0.00010   0.00000   0.02266   0.02253  -0.30336
   D17        1.80756   0.00152   0.00000   0.07439   0.07421   1.88177
   D18       -2.42461  -0.00042   0.00000   0.04719   0.04768  -2.37692
   D19       -0.32480  -0.00112   0.00000   0.00796   0.00844  -0.31636
   D20        1.75543  -0.00039   0.00000   0.01853   0.01964   1.77507
   D21       -2.40106  -0.00071   0.00000   0.00678   0.00753  -2.39353
   D22       -1.26266  -0.00203   0.00000   0.07963   0.07938  -1.18329
   D23        3.12627  -0.00361   0.00000   0.04040   0.03864  -3.11827
   D24        0.53463  -0.00244   0.00000   0.03758   0.03642   0.57105
   D25        2.00800  -0.00135   0.00000  -0.28748  -0.28562   1.72238
   D26        0.11375  -0.00293   0.00000  -0.32671  -0.32635  -0.21260
   D27       -2.47789  -0.00175   0.00000  -0.32954  -0.32858  -2.80646
   D28        0.22628   0.00083   0.00000  -0.01072  -0.01082   0.21546
   D29       -1.67870  -0.00339   0.00000  -0.04748  -0.04793  -1.72662
   D30        2.00340  -0.00271   0.00000  -0.06377  -0.06399   1.93941
         Item               Value     Threshold  Converged?
 Maximum Force            0.009051     0.000450     NO 
 RMS     Force            0.002504     0.000300     NO 
 Maximum Displacement     0.156784     0.001800     NO 
 RMS     Displacement     0.053029     0.001200     NO 
 Predicted change in Energy=-3.128202D-03
 GradGradGradGradGradGradGradGradGradGradGradGradGradGradGradGradGradGrad

                          Input orientation:                          
 ---------------------------------------------------------------------
 Center     Atomic      Atomic             Coordinates (Angstroms)
 Number     Number       Type             X           Y           Z
 ---------------------------------------------------------------------
      1          7           0        1.305954    0.294852    0.813455
      2          5           0        2.080173    0.153072   -0.398824
      3          7           0        0.649851   -2.435728    0.246179
      4          5           0        0.341793   -1.169998   -0.305899
      5          1           0        1.571297   -2.849112    0.220603
      6          1           0        2.988927   -0.616975   -0.395802
      7          1           0        2.022520    1.020628   -1.212063
      8          1           0        0.706517    1.092231    0.962403
      9          1           0        1.540375   -0.184284    1.668145
     10          1           0        0.015900   -2.909395    0.870163
     11          1           0       -0.761319   -0.737064   -0.216984
     12          1           0        0.963384   -0.833892   -1.302540
 ---------------------------------------------------------------------
                    Distance matrix (angstroms):
                    1          2          3          4          5
     1  N    0.000000
     2  B    1.445384   0.000000
     3  N    2.865020   3.027167   0.000000
     4  B    2.080467   2.186576   1.414837   0.000000
     5  H    3.210357   3.107371   1.010249   2.146698   0.000000
     6  H    2.264096   1.191140   3.031713   2.705778   2.715155
     7  H    2.267805   1.190519   3.994633   2.905997   4.151028
     8  H    1.008625   2.149858   3.600373   2.619025   4.102719
     9  H    1.007482   2.162765   2.807850   2.510992   3.032762
    10  H    3.454657   3.905158   1.007775   2.124813   1.686660
    11  H    2.529876   2.983200   2.256408   1.188357   3.176999
    12  H    2.422571   1.742992   2.250047   1.221734   2.598199
                    6          7          8          9         10
     6  H    0.000000
     7  H    2.069292   0.000000
     8  H    3.158402   2.542694   0.000000
     9  H    2.558399   3.159094   1.680143   0.000000
    10  H    3.961912   4.879270   4.061831   3.222892   0.000000
    11  H    3.756426   3.439392   2.625228   3.026065   2.550486
    12  H    2.229810   2.137569   2.984275   3.095138   3.150568
                   11         12
    11  H    0.000000
    12  H    2.040197   0.000000
 Stoichiometry    B2H8N2
 Framework group  C1[X(B2H8N2)]
 Deg. of freedom    30
 Full point group                 C1      NOp   1
 Largest Abelian subgroup         C1      NOp   1
 Largest concise Abelian subgroup C1      NOp   1
                         Standard orientation:                         
 ---------------------------------------------------------------------
 Center     Atomic      Atomic             Coordinates (Angstroms)
 Number     Number       Type             X           Y           Z
 ---------------------------------------------------------------------
      1          7           0        1.098102   -0.693113   -0.215449
      2          5           0        1.287803    0.735569   -0.105826
      3          7           0       -1.662528    0.072594   -0.246364
      4          5           0       -0.617888    0.036628    0.707155
      5          1           0       -1.675511    0.697297   -1.040203
      6          1           0        0.942203    1.417844   -1.018995
      7          1           0        2.069181    1.143120    0.694604
      8          1           0        1.590146   -1.335044    0.387163
      9          1           0        0.742965   -1.132602   -1.049563
     10          1           0       -2.355331   -0.657300   -0.300112
     11          1           0       -0.659779   -0.742766    1.603248
     12          1           0       -0.052475    1.092098    0.949903
 ---------------------------------------------------------------------
 Rotational constants (GHZ):          13.8759172           4.6032429           4.3113328
 Standard basis: 6-31G(d,p) (6D, 7F)
 There are   100 symmetry adapted cartesian basis functions of A   symmetry.
 There are   100 symmetry adapted basis functions of A   symmetry.
   100 basis functions,   168 primitive gaussians,   100 cartesian basis functions
    16 alpha electrons       16 beta electrons
       nuclear repulsion energy       113.9521557786 Hartrees.
 NAtoms=   12 NActive=   12 NUniq=   12 SFac= 1.00D+00 NAtFMM=   60 NAOKFM=F Big=F
 Integral buffers will be    131072 words long.
 Raffenetti 2 integral format.
 Two-electron integral symmetry is turned on.
 One-electron integrals computed using PRISM.
 NBasis=   100 RedAO= T EigKep=  5.68D-03  NBF=   100
 NBsUse=   100 1.00D-06 EigRej= -1.00D+00 NBFU=   100
 Initial guess from the checkpoint file:  "/scratch/1311818/Gau-25041.chk"
 B after Tr=     0.000000   -0.000000    0.000000
         Rot=    0.999156    0.039177   -0.000576   -0.012341 Ang=   4.71 deg.
 Initial guess <Sx>= 0.0000 <Sy>= 0.0000 <Sz>= 0.0000 <S**2>= 0.0000 S= 0.0000
 ExpMin= 1.27D-01 ExpMax= 4.17D+03 ExpMxC= 6.27D+02 IAcc=2 IRadAn=         4 AccDes= 0.00D+00
 Harris functional with IExCor=  402 and IRadAn=       4 diagonalized for initial guess.
 HarFok:  IExCor=  402 AccDes= 0.00D+00 IRadAn=         4 IDoV= 1 UseB2=F ITyADJ=14
 ICtDFT=  3500011 ScaDFX=  1.000000  1.000000  1.000000  1.000000
 FoFCou: FMM=F IPFlag=           0 FMFlag=      100000 FMFlg1=           0
         NFxFlg=           0 DoJE=T BraDBF=F KetDBF=T FulRan=T
         wScrn=  0.000000 ICntrl=       500 IOpCl=  0 I1Cent=   200000004 NGrid=           0
         NMat0=    1 NMatS0=      1 NMatT0=    0 NMatD0=    1 NMtDS0=    0 NMtDT0=    0
 Petite list used in FoFCou.
 Keep R1 and R2 ints in memory in canonical form, NReq=29209870.
 Requested convergence on RMS density matrix=1.00D-08 within1024 cycles.
 Requested convergence on MAX density matrix=1.00D-06.
 Requested convergence on             energy=1.00D-06.
 No special actions if energy rises.
 Integral accuracy reduced to 1.0D-05 until final iterations.
 Initial convergence to 1.0D-05 achieved.  Increase integral accuracy.
 SCF Done:  E(UB3LYP) =  -164.081217753     A.U. after   11 cycles
            NFock= 11  Conv=0.77D-08     -V/T= 2.0097
 <Sx>= 0.0000 <Sy>= 0.0000 <Sz>= 0.0000 <S**2>= 0.0000 S= 0.0000
 <L.S>= 0.000000000000E+00
 Annihilation of the first spin contaminant:
 S**2 before annihilation     0.0000,   after    -0.0000
 DoSCS=F DFT=T ScalE2(SS,OS)=  1.000000  1.000000
 Range of M.O.s used for correlation:     1   100
 NBasis=   100 NAE=    16 NBE=    16 NFC=     0 NFV=     0
 NROrb=    100 NOA=    16 NOB=    16 NVA=    84 NVB=    84
 Symmetrizing basis deriv contribution to polar:
 IMax=3 JMax=2 DiffMx= 0.00D+00
 G2DrvN: will do    13 centers at a time, making    1 passes.
 Calling FoFCou, ICntrl=  3107 FMM=F I1Cent=   0 AccDes= 0.00D+00.
 End of G2Drv F.D. properties file   721 does not exist.
 End of G2Drv F.D. properties file   722 does not exist.
 End of G2Drv F.D. properties file   788 does not exist.
          IDoAtm=111111111111
          Differentiating once with respect to electric field.
                with respect to dipole field.
          Differentiating once with respect to nuclear coordinates.
 Keep R1 and R2 ints in memory in canonical form, NReq=29207815.
          There are    39 degrees of freedom in the 1st order CPHF.  IDoFFX=6 NUNeed=     3.
     36 vectors produced by pass  0 Test12= 6.89D-15 2.56D-09 XBig12= 7.31D+01 2.50D+00.
 AX will form    36 AO Fock derivatives at one time.
     36 vectors produced by pass  1 Test12= 6.89D-15 2.56D-09 XBig12= 2.89D+00 2.21D-01.
     36 vectors produced by pass  2 Test12= 6.89D-15 2.56D-09 XBig12= 1.89D-02 1.61D-02.
     36 vectors produced by pass  3 Test12= 6.89D-15 2.56D-09 XBig12= 3.49D-05 6.35D-04.
     36 vectors produced by pass  4 Test12= 6.89D-15 2.56D-09 XBig12= 2.86D-08 1.78D-05.
     14 vectors produced by pass  5 Test12= 6.89D-15 2.56D-09 XBig12= 2.03D-11 4.23D-07.
      3 vectors produced by pass  6 Test12= 6.89D-15 2.56D-09 XBig12= 9.27D-15 8.21D-09.
 InvSVY:  IOpt=1 It=  1 EMax= 5.33D-15
 Solved reduced A of dimension   197 with    39 vectors.
 Isotropic polarizability for W=    0.000000       42.57 Bohr**3.
 End of Minotr F.D. properties file   721 does not exist.
 End of Minotr F.D. properties file   722 does not exist.
 End of Minotr F.D. properties file   788 does not exist.
 Calling FoFJK, ICntrl=    100127 FMM=F ISym2X=0 I1Cent= 0 IOpClX= 1 NMat=1 NMatS=1 NMatT=0.
 ***** Axes restored to original set *****
 -------------------------------------------------------------------
 Center     Atomic                   Forces (Hartrees/Bohr)
 Number     Number              X              Y              Z
 -------------------------------------------------------------------
      1        7          -0.001320918    0.002747548    0.000295024
      2        5          -0.000502371   -0.000069668   -0.001156065
      3        7           0.001938462   -0.007049185    0.003409514
      4        5          -0.000198456    0.000485831    0.002221963
      5        1          -0.002764646   -0.000444754   -0.002767233
      6        1           0.001461697   -0.000844265   -0.000046044
      7        1          -0.000702793    0.000523738   -0.001315525
      8        1          -0.000652735    0.001084234    0.000223693
      9        1           0.000331919   -0.002091882    0.000508561
     10        1           0.001199813    0.000991411    0.001142452
     11        1          -0.002229223    0.001788017   -0.002297226
     12        1           0.003439251    0.002878974   -0.000219115
 -------------------------------------------------------------------
 Cartesian Forces:  Max     0.007049185 RMS     0.002012753
 FormGI is forming the generalized inverse of G from B-inverse, IUseBI=4.

 GradGradGradGradGradGradGradGradGradGradGradGradGradGradGradGradGradGrad
 Berny optimization.
 Internal  Forces:  Max     0.006594196 RMS     0.001332115
 Search for a saddle point.
 Step number   3 out of a maximum of   74
 All quantities printed in internal units (Hartrees-Bohrs-Radians)
 Swapping is turned off.
 Second derivative matrix not updated -- analytic derivatives used.
 ITU=  0  0  0
     Eigenvalues ---   -0.01516   0.00293   0.00312   0.00681   0.00904
     Eigenvalues ---    0.00938   0.01028   0.02220   0.02682   0.03625
     Eigenvalues ---    0.03803   0.04537   0.04930   0.05562   0.06318
     Eigenvalues ---    0.06785   0.08045   0.09120   0.10338   0.11039
     Eigenvalues ---    0.19066   0.24683   0.25060   0.25179   0.31224
     Eigenvalues ---    0.41269   0.47295   0.47753   0.48025   0.48231
 Eigenvectors required to have negative eigenvalues:
                          R2        R7        D24       D27       D30
   1                   -0.65252  -0.55454   0.18084   0.16159   0.16033
                          D8        D4        D26       A17       D17
   1                    0.15352  -0.11620  -0.10924   0.09659   0.09567
 RFO step:  Lambda0=2.174983017D-05 Lambda=-2.10330322D-03.
 Linear search not attempted -- option 19 set.
 Iteration  1 RMS(Cart)=  0.05134414 RMS(Int)=  0.00269621
 Iteration  2 RMS(Cart)=  0.00244423 RMS(Int)=  0.00047623
 Iteration  3 RMS(Cart)=  0.00000766 RMS(Int)=  0.00047619
 Iteration  4 RMS(Cart)=  0.00000000 RMS(Int)=  0.00047619
 Variable       Old X    -DE/DX   Delta X   Delta X   Delta X     New X
                                 (Linear)    (Quad)   (Total)
    R1        2.73138   0.00186   0.00000   0.00460   0.00458   2.73596
    R2        3.93151   0.00085   0.00000   0.04870   0.04872   3.98024
    R3        1.90602   0.00128   0.00000   0.00137   0.00137   1.90739
    R4        1.90386   0.00150   0.00000   0.00279   0.00279   1.90665
    R5        2.25093   0.00166   0.00000   0.00717   0.00717   2.25810
    R6        2.24976   0.00131   0.00000   0.00615   0.00615   2.25590
    R7        3.29378  -0.00146   0.00000  -0.07623  -0.07635   3.21742
    R8        2.67365   0.00659   0.00000   0.00449   0.00449   2.67815
    R9        1.90909  -0.00227   0.00000  -0.00528  -0.00528   1.90382
   R10        1.90442  -0.00051   0.00000  -0.00162  -0.00162   1.90280
   R11        2.24567   0.00255   0.00000   0.00792   0.00792   2.25359
   R12        2.30874   0.00303   0.00000   0.01182   0.01199   2.32073
    A1        1.29524   0.00055   0.00000  -0.00968  -0.01021   1.28502
    A2        2.11735  -0.00021   0.00000   0.00950   0.00997   2.12733
    A3        2.14152  -0.00023   0.00000  -0.00720  -0.00794   2.13358
    A4        1.93977  -0.00005   0.00000  -0.01226  -0.01216   1.92761
    A5        1.80227  -0.00081   0.00000  -0.01233  -0.01205   1.79022
    A6        1.97032   0.00050   0.00000   0.00924   0.00895   1.97926
    A7        2.06003   0.00034   0.00000  -0.00012  -0.00060   2.05942
    A8        2.06634  -0.00013   0.00000  -0.00184  -0.00130   2.06503
    A9        1.71854  -0.00041   0.00000   0.02277   0.02231   1.74085
   A10        2.10573  -0.00008   0.00000  -0.00080  -0.00085   2.10487
   A11        1.69520   0.00029   0.00000  -0.00520  -0.00522   1.68997
   A12        1.59823  -0.00030   0.00000  -0.00915  -0.00878   1.58945
   A13        2.15890  -0.00006   0.00000  -0.00570  -0.00694   2.15196
   A14        2.12365   0.00019   0.00000   0.01610   0.01486   2.13850
   A15        1.97917  -0.00000   0.00000   0.00750   0.00625   1.98541
   A16        1.89552   0.00249   0.00000   0.02704   0.02679   1.92230
   A17        1.70462  -0.00083   0.00000  -0.02176  -0.02212   1.68250
   A18        1.58021  -0.00148   0.00000  -0.03135  -0.03169   1.54853
   A19        2.09305   0.00031   0.00000   0.02957   0.02958   2.12264
   A20        2.04165   0.00013   0.00000  -0.00772  -0.00674   2.03491
   A21        2.01872  -0.00068   0.00000  -0.01140  -0.01256   2.00615
   A22        1.62964   0.00118   0.00000   0.03883   0.03844   1.66808
    D1       -1.60331   0.00019   0.00000  -0.03770  -0.03793  -1.64125
    D2        1.87369  -0.00022   0.00000  -0.02880  -0.02914   1.84455
    D3        0.19068   0.00039   0.00000  -0.03060  -0.03120   0.15948
    D4        2.83912  -0.00008   0.00000  -0.01673  -0.01649   2.82263
    D5        0.03293  -0.00049   0.00000  -0.00782  -0.00769   0.02524
    D6       -1.65007   0.00011   0.00000  -0.00963  -0.00976  -1.65983
    D7        0.06944  -0.00039   0.00000  -0.05699  -0.05691   0.01253
    D8       -2.73674  -0.00080   0.00000  -0.04809  -0.04811  -2.78486
    D9        1.86344  -0.00019   0.00000  -0.04989  -0.05018   1.81326
   D10        1.80281  -0.00004   0.00000   0.03767   0.03706   1.83987
   D11       -2.29525   0.00090   0.00000   0.07090   0.07003  -2.22521
   D12       -0.27076  -0.00008   0.00000   0.05287   0.05197  -0.21878
   D13       -2.42055  -0.00010   0.00000   0.04654   0.04647  -2.37408
   D14       -0.23543   0.00084   0.00000   0.07977   0.07945  -0.15598
   D15        1.78906  -0.00014   0.00000   0.06173   0.06139   1.85046
   D16       -0.30336  -0.00000   0.00000   0.04389   0.04394  -0.25942
   D17        1.88177   0.00093   0.00000   0.07713   0.07691   1.95869
   D18       -2.37692  -0.00005   0.00000   0.05909   0.05886  -2.31807
   D19       -0.31636  -0.00037   0.00000   0.04966   0.05069  -0.26567
   D20        1.77507  -0.00004   0.00000   0.05350   0.05394   1.82901
   D21       -2.39353  -0.00014   0.00000   0.05064   0.05117  -2.34236
   D22       -1.18329  -0.00129   0.00000  -0.17347  -0.17321  -1.35650
   D23       -3.11827  -0.00225   0.00000  -0.18263  -0.18288   2.98203
   D24        0.57105  -0.00157   0.00000  -0.19891  -0.19904   0.37201
   D25        1.72238  -0.00059   0.00000  -0.07545  -0.07511   1.64728
   D26       -0.21260  -0.00155   0.00000  -0.08461  -0.08478  -0.29738
   D27       -2.80646  -0.00087   0.00000  -0.10089  -0.10094  -2.90740
   D28        0.21546   0.00036   0.00000  -0.03635  -0.03659   0.17887
   D29       -1.72662  -0.00169   0.00000  -0.04836  -0.04861  -1.77523
   D30        1.93941  -0.00134   0.00000  -0.07681  -0.07689   1.86252
         Item               Value     Threshold  Converged?
 Maximum Force            0.006594     0.000450     NO 
 RMS     Force            0.001332     0.000300     NO 
 Maximum Displacement     0.184262     0.001800     NO 
 RMS     Displacement     0.051386     0.001200     NO 
 Predicted change in Energy=-1.252714D-03
 GradGradGradGradGradGradGradGradGradGradGradGradGradGradGradGradGradGrad

                          Input orientation:                          
 ---------------------------------------------------------------------
 Center     Atomic      Atomic             Coordinates (Angstroms)
 Number     Number       Type             X           Y           Z
[...]
 -------------------
 Temperature   298.150 Kelvin.  Pressure   1.00000 Atm.
 Atom     1 has atomic number  7 and mass  14.00307
 Atom     2 has atomic number  5 and mass  11.00931
 Atom     3 has atomic number  7 and mass  14.00307
 Atom     4 has atomic number  5 and mass  11.00931
 Atom     5 has atomic number  1 and mass   1.00783
 Atom     6 has atomic number  1 and mass   1.00783
 Atom     7 has atomic number  1 and mass   1.00783
 Atom     8 has atomic number  1 and mass   1.00783
 Atom     9 has atomic number  1 and mass   1.00783
 Atom    10 has atomic number  1 and mass   1.00783
 Atom    11 has atomic number  1 and mass   1.00783
 Atom    12 has atomic number  1 and mass   1.00783
 Molecular mass:    58.08736 amu.
 Principal axes and moments of inertia in atomic units:
                           1         2         3
     Eigenvalues --   128.39191 405.39915 435.11791
           X            0.99964   0.01062   0.02448
           Y           -0.00863   0.99677  -0.07986
           Z           -0.02525   0.07962   0.99651
 This molecule is an asymmetric top.
 Rotational symmetry number  1.
 Rotational temperatures (Kelvin)      0.67461     0.21365     0.19906
 Rotational constants (GHZ):          14.05650     4.45176     4.14771
    1 imaginary frequencies ignored.
 Zero-point vibrational energy     259124.8 (Joules/Mol)
                                   61.93232 (Kcal/Mol)
 Warning -- explicit consideration of   6 degrees of freedom as
           vibrations may cause significant error
 Vibrational temperatures:    224.39   323.59   430.21   470.80   697.03
          (Kelvin)            813.49   895.30   989.59  1062.83  1207.15
                             1310.95  1456.68  1551.49  1579.38  1598.81
                             1620.37  1759.77  1827.41  1852.19  2346.28
                             2352.25  3453.64  3742.22  3814.40  3857.47
                             5181.45  5216.73  5333.38  5361.84
 
 Zero-point correction=                           0.098695 (Hartree/Particle)
 Thermal correction to Energy=                    0.104571
 Thermal correction to Enthalpy=                  0.105515
 Thermal correction to Gibbs Free Energy=         0.070874
 Sum of electronic and zero-point Energies=           -163.983880
 Sum of electronic and thermal Energies=              -163.978005
 Sum of electronic and thermal Enthalpies=            -163.977061
 Sum of electronic and thermal Free Energies=         -164.011702
 
                     E (Thermal)             CV                S
                      KCal/Mol        Cal/Mol-Kelvin    Cal/Mol-Kelvin
 Total                   65.619             21.097             72.909
 Electronic               0.000              0.000              0.000
 Translational            0.889              2.981             38.099
 Rotational               0.889              2.981             24.630
 Vibrational             63.842             15.135             10.180
 Vibration     1          0.620              1.896              2.598
 Vibration     2          0.650              1.803              1.919
 Vibration     3          0.692              1.676              1.422
 Vibration     4          0.711              1.621              1.274
 Vibration     5          0.841              1.285              0.698
 Vibration     6          0.921              1.106              0.513
                       Q            Log10(Q)             Ln(Q)
 Total Bot       0.251412D-32        -32.599613        -75.063384
 Total V=0       0.626753D+13         12.797096         29.466403
 Vib (Bot)       0.268195D-44        -44.571549       -102.629784
 Vib (Bot)    1  0.129786D+01          0.113227          0.260714
 Vib (Bot)    2  0.877667D+00         -0.056670         -0.130488
 Vib (Bot)    3  0.636378D+00         -0.196285         -0.451962
 Vib (Bot)    4  0.571981D+00         -0.242619         -0.558650
 Vib (Bot)    5  0.343897D+00         -0.463572         -1.067414
 Vib (Bot)    6  0.273438D+00         -0.563142         -1.296682
 Vib (V=0)       0.668591D+01          0.825161          1.900003
 Vib (V=0)    1  0.189084D+01          0.276654          0.637020
 Vib (V=0)    2  0.151010D+01          0.179005          0.412175
 Vib (V=0)    3  0.130931D+01          0.117041          0.269498
 Vib (V=0)    4  0.125971D+01          0.100271          0.230883
 Vib (V=0)    5  0.110685D+01          0.044088          0.101517
 Vib (V=0)    6  0.106988D+01          0.029337          0.067550
 Electronic      0.100000D+01          0.000000          0.000000
 Translational   0.174011D+08          7.240576         16.672043
 Rotational      0.538715D+05          4.731359         10.894357
 ***** Axes restored to original set *****
 -------------------------------------------------------------------
 Center     Atomic                   Forces (Hartrees/Bohr)
 Number     Number              X              Y              Z
 -------------------------------------------------------------------
      1        7           0.000000794   -0.000000975   -0.000000517
      2        5          -0.000001112   -0.000000078   -0.000000976
      3        7           0.000001707   -0.000002568    0.000004696
      4        5          -0.000003619    0.000002887   -0.000000983
      5        1           0.000000997   -0.000000990   -0.000001644
      6        1          -0.000000099    0.000000293   -0.000001918
      7        1          -0.000000602   -0.000000077   -0.000001013
      8        1           0.000000910    0.000000087    0.000000136
      9        1           0.000002310    0.000000128   -0.000000262
     10        1          -0.000001679   -0.000000197    0.000001955
     11        1          -0.000000140    0.000000728    0.000001067
     12        1           0.000000532    0.000000763   -0.000000539
 -------------------------------------------------------------------
 Cartesian Forces:  Max     0.000004696 RMS     0.000001524

 ----------------------------------------------------------------------

 Electric dipole moment (input orientation):
 (Debye = 10**-18 statcoulomb cm , SI units = C m)
                  (au)            (Debye)         (10**-30 SI)
   Tot        0.105190D+01      0.267366D+01      0.891838D+01
   x         -0.104439D+00     -0.265457D+00     -0.885469D+00
   y         -0.241655D+00     -0.614225D+00     -0.204883D+01
   z          0.101842D+01      0.258858D+01      0.863456D+01

 Dipole polarizability, Alpha (input orientation).
 (esu units = cm**3 , SI units = C**2 m**2 J**-1)
 Alpha(0;0):
               (au)            (10**-24 esu)      (10**-40 SI)
   iso        0.427946D+02      0.634150D+01      0.705587D+01
   aniso      0.126259D+02      0.187096D+01      0.208173D+01
   xx         0.425328D+02      0.630271D+01      0.701271D+01
   yx         0.332827D+01      0.493199D+00      0.548758D+00
   yy         0.483589D+02      0.716604D+01      0.797330D+01
   zx        -0.255971D+01     -0.379310D+00     -0.422039D+00
   zy        -0.243621D+01     -0.361009D+00     -0.401677D+00
   zz         0.374921D+02      0.555575D+01      0.618161D+01

 ----------------------------------------------------------------------

 Dipole orientation:
     7          2.63196084          0.90660567          1.12556181
     5          3.82492273          0.14700384         -1.21470340
     7          1.26971504         -4.41289101          1.48320158
     5          0.66809764         -2.33166227         -0.09461173
     1          2.82489079         -5.48657162          1.25700973
     1          5.66791268         -1.15164300         -1.09495722
     1          3.36821796          1.33246574         -3.07860887
     1          1.43117791          2.38530387          1.22003623
     1          3.30125951          0.36205669          2.82613896
     1          0.20436268         -4.90849268          2.97972230
     1         -1.37818548         -1.38603491         -0.09590273
     1          1.80784263         -2.21277226         -2.11238533

 Electric dipole moment (dipole orientation):
 (Debye = 10**-18 statcoulomb cm , SI units = C m)
                  (au)            (Debye)         (10**-30 SI)
   Tot        0.105190D+01      0.267366D+01      0.891838D+01
   x          0.000000D+00      0.000000D+00      0.000000D+00
   y          0.000000D+00      0.000000D+00      0.000000D+00
   z          0.105190D+01      0.267366D+01      0.891838D+01

 Dipole polarizability, Alpha (dipole orientation).
 (esu units = cm**3 , SI units = C**2 m**2 J**-1)
 Alpha(0;0):
               (au)            (10**-24 esu)      (10**-40 SI)
   iso        0.427946D+02      0.634150D+01      0.705587D+01
   aniso      0.126259D+02      0.187096D+01      0.208173D+01
   xx         0.419070D+02      0.620998D+01      0.690953D+01
   yx         0.223150D+01      0.330675D+00      0.367925D+00
   yy         0.466338D+02      0.691041D+01      0.768887D+01
   zx        -0.358369D+01     -0.531048D+00     -0.590870D+00
   zy        -0.481618D+01     -0.713684D+00     -0.794081D+00
   zz         0.398430D+02      0.590412D+01      0.656922D+01

 ----------------------------------------------------------------------
 1\1\GINC-MNODE009\Freq\UB3LYP\6-31G(d,p)\B2H8N2\MARIAHARRIS\03-Jul-202
 0\0\\#opt=(calcall, ts, noeigen) ub3lyp/6-31G(d,p) scf=(maxcycles=1024
 )\\something title\\0,1\N,1.3211012236,0.3139164636,0.8251646252\B,2.0
 768431553,0.1999183383,-0.4035054682\N,0.6176743779,-2.4606806075,0.29
 01398312\B,0.3710413854,-1.19337187,-0.2968286498\H,1.4549846489,-2.99
 56519382,0.125436058\H,3.0488994193,-0.49472807,-0.4031995717\H,1.9270
 351776,1.0398096775,-1.2383331085\H,0.6748248678,1.0713060938,0.990241
 9276\H,1.5874963601,-0.1773609818,1.6653977836\H,-0.0188498302,-2.8913
 059685,0.9406395107\H,-0.712112867,-0.6936797539,-0.2900427193\H,1.076
 4320813,-0.8938363833,-1.2562732188\\Version=EM64L-G16RevA.03\State=1-
 A\HF=-164.0825757\S2=0.\S2-1=0.\S2A=0.\RMSD=5.506e-09\RMSF=1.524e-06\Z
 eroPoint=0.0986954\Thermal=0.104571\Dipole=-0.1044388,-0.2416547,1.018
 4244\DipoleDeriv=-0.6220112,-0.3226421,0.1311826,-0.3204529,-0.7917921
 ,-0.1585417,-0.0421294,-0.3951643,-0.7495045,0.7459721,0.2199019,-0.10
 03123,0.201928,0.7074845,0.0683122,-0.0355976,0.1160262,0.7673668,-0.4
 377372,-0.016789,-0.1913925,-0.1906416,-1.1304236,-0.0344066,-0.115034
 5,0.1960905,-0.588714,0.6757459,0.1949137,0.0680404,0.2766328,1.435061
 1,-0.0512437,-0.0570497,-0.1769638,0.4480931,0.1210411,0.0456062,0.048
 1397,0.0511707,0.1810943,0.048282,0.034858,0.0689423,0.2318426,-0.2917
 258,0.0131607,0.0113043,0.0631424,-0.1956128,-0.0140208,-0.0440398,0.0
 166798,-0.1112476,-0.1423379,-0.0150007,-0.0344448,-0.044303,-0.262644
 8,0.1065266,0.0060941,0.0684786,-0.1837993,0.1716172,0.0400012,0.00534
 72,0.0615373,0.2043748,0.0070339,0.0262592,-0.0082746,0.1415554,0.2196
 746,0.0608878,0.0326009,0.0509256,0.1676176,0.0158409,0.0343577,0.0502
 989,0.1384738,0.1907729,0.0536514,0.0686769,0.0092253,0.1633967,0.0678
 708,0.0930248,0.0832782,0.2041063,-0.3207776,0.0067587,-0.024903,0.019
 0349,-0.1990562,0.0206753,0.0320794,-0.0189138,-0.0953149,-0.310234,-0
 .2804498,-0.0142393,-0.1781995,-0.2794994,-0.0763289,0.0671778,-0.0004
 779,-0.2028577\Polar=42.5327883,3.3282736,48.3588512,-2.5597113,-2.436
 2124,37.4920923\PG=C01 [X(B2H8N2)]\NImag=1\\0.37076760,-0.34486783,0.4
 6087876,-0.08599710,-0.11313680,0.68702932,-0.11707470,0.04196789,0.11
 843006,0.33719448,0.02014853,-0.06414556,0.00925120,-0.15461852,0.2924
 1090,0.08243368,-0.01956435,-0.22761964,-0.10584979,-0.12208378,0.3928
 2871,0.00745187,-0.00018480,0.00131239,0.00126466,-0.00017526,0.005871
 45,0.61234996,-0.01099974,-0.02533591,-0.00244598,0.00465128,-0.003607
 41,-0.00622705,-0.14840303,0.60068924,0.00046916,-0.00227454,0.0108273
 3,-0.00520248,-0.00453644,-0.00930405,-0.25978526,-0.24826397,0.324590
 18,-0.01224991,0.01152981,0.00755895,-0.02094109,-0.00450371,0.0011059
 9,-0.08742166,0.06190720,-0.00467064,0.39098022,0.03284337,0.02038034,
 0.00634878,-0.01201278,0.00037836,0.03167070,0.05082295,-0.26585992,0.
 11148972,-0.12877453,0.36962963,0.03128208,0.02340636,-0.03149942,0.00
 916539,0.03329414,0.04618312,-0.00611989,0.12685903,-0.10055948,-0.075
 47386,-0.18787138,0.25232161,-0.00074279,-0.00231981,-0.00117332,0.002
 02749,0.00045053,0.00048734,-0.32526791,0.18408527,0.07959764,-0.00227
 791,0.00061894,0.00060080,0.34152646,-0.00025674,-0.00081312,-0.000335
 59,0.00127774,0.00007843,-0.00008234,0.19440572,-0.16545880,-0.0166325
 1,0.02018664,-0.00738212,-0.00704526,-0.19654762,0.16537947,0.00115175
 ,-0.00062880,-0.00130655,0.00047406,0.00142963,0.00187231,0.07251823,-
 0.00897659,-0.03860648,-0.01322141,0.00273167,0.00270832,-0.07774377,0
 .01975621,0.04036283,-0.00496594,0.00767094,0.00067678,-0.15815036,0.0
 9313325,0.00237218,0.00057426,-0.00079023,0.00097977,-0.00239503,0.003
 17853,-0.00451736,-0.00039046,-0.00057302,-0.00010887,0.17084407,0.006
 41151,0.00250411,-0.00071656,0.09452432,-0.10285012,0.00481338,-0.0006
 2910,0.00127180,0.00011258,-0.00411467,-0.00147051,-0.00468084,0.00051
 166,0.00035564,-0.00017138,-0.10162478,0.10239050,0.02058744,-0.013627
 64,0.00097271,-0.00464076,0.00760607,-0.03876062,0.00048838,0.00085747
 ,0.00038724,-0.00209688,-0.00020286,-0.00382930,0.00003911,-0.00015011
 ,-0.00020689,-0.00276837,-0.00159697,0.03661219,0.00661089,-0.00613959
 ,0.00944299,-0.04209997,0.02667241,-0.01865478,-0.00100537,-0.00063836
 ,0.00185407,0.00142771,-0.00356895,-0.00293418,-0.00035646,-0.00031133
 ,-0.00021373,0.00293162,0.01217461,-0.00975397,0.03605478,0.00104133,0
 .00743595,-0.00354603,0.02258871,-0.13227372,0.09889238,-0.00193997,-0
 .00071041,0.00179404,0.00323329,-0.00309688,-0.00359130,-0.00010817,0.
 00035706,-0.00016287,0.00196723,-0.00279373,0.00712186,-0.02180259,0.1
 3620970,-0.00082614,0.01691031,-0.01536504,-0.01599236,0.09282090,-0.1
 2806583,-0.00088131,0.00078441,0.00130136,0.00050292,-0.00475055,-0.00
 283912,-0.00007125,0.00001841,-0.00016743,0.00060289,0.00040134,0.0031
 6466,0.01563902,-0.10459955,0.13929391,-0.19380149,0.21307727,0.042976
 78,-0.00961470,0.01238222,0.00017974,-0.00123619,-0.00254529,-0.000011
 10,0.00605752,-0.00092856,-0.00098968,-0.00032016,-0.00010910,-0.00020
 378,0.00036173,0.00115112,0.00419256,0.00015050,-0.00205463,-0.0021711
 1,0.20652820,0.21836147,-0.26495495,-0.03580269,-0.00407267,0.00264435
 ,0.00110013,-0.00199817,-0.00095235,-0.00094879,0.00493789,-0.00462258
 ,-0.00093137,-0.00013168,0.00008421,-0.00012838,-0.00018332,0.00212932
 ,0.00172301,-0.00117317,-0.00059288,-0.00066876,-0.22215672,0.27635158
 ,0.05385562,-0.04707737,-0.07435524,0.01239101,-0.01767577,0.00313250,
 -0.00040225,-0.00040303,0.00054877,0.00359714,-0.00116550,-0.00190962,
 -0.00018405,-0.00004811,-0.00033029,0.00177415,0.00049963,-0.00238406,
 -0.00134995,0.00056113,0.00043628,-0.04750223,0.04244994,0.06707865,-0
 .06173358,0.08009820,-0.07686841,0.00643273,-0.01179015,0.01452650,0.0
 0027117,0.00212029,0.00212491,-0.00194110,0.00038947,-0.00713164,0.000
 36529,0.00024446,0.00025817,-0.00076829,-0.00110102,-0.00194814,-0.000
 56088,0.00164850,0.00434652,-0.00631150,0.00681015,-0.02125028,0.06566
 836,0.07729846,-0.13391391,0.15873501,-0.00179075,0.00113642,0.0011220
 1,0.00187162,0.00027901,0.00441897,-0.00061391,0.00511582,-0.00948614,
 -0.00008374,-0.00051298,-0.00070495,-0.00080356,-0.00130133,-0.0014759
 2,0.00067798,0.00203999,0.00120335,0.00302744,-0.01053492,0.02404253,-
 0.07661718,0.14132695,-0.08191164,0.17349017,-0.33619826,-0.00996962,0
 .01079703,-0.01193570,0.00086237,0.00193843,0.00162276,-0.00152217,-0.
 00025512,-0.00553065,0.00007953,-0.00024640,-0.00016623,-0.00030265,-0
 .00083994,0.00172391,0.00232762,-0.00079181,-0.00130137,0.00416778,-0.
 00759332,0.00820836,0.08642816,-0.17597937,0.34359113,-0.00025518,0.00
 094498,0.00107787,-0.00121867,-0.00090770,-0.00075999,-0.21077703,-0.0
 8995138,0.18028487,0.00561617,0.00141121,-0.00510575,-0.01534487,-0.01
 698856,0.01800514,0.00033958,0.00000638,0.00005773,0.00035015,0.000198
 91,-0.00009204,0.00025896,0.00010806,0.00004858,-0.00024448,-0.0003496
 7,-0.00003477,0.21982939,0.00033469,0.00067961,0.00019548,0.00056008,-
 0.00027551,0.00164814,-0.10119001,-0.12594624,0.13496311,-0.01744588,-
 0.00448196,0.01283759,0.01349364,0.00904563,-0.01589472,0.00004287,0.0
 0010199,-0.00002487,-0.00035538,-0.00040478,-0.00043510,-0.00005699,-0
 .00014442,0.00001505,-0.00049564,-0.00050230,-0.00006846,0.10372586,0.
 12371543,-0.00153338,-0.00118689,0.00123381,-0.00155326,-0.00165966,-0
 .00204283,0.18803030,0.12935132,-0.19352883,0.00862777,0.00228633,-0.0
 0616428,-0.00160074,0.00242842,-0.00438309,0.00023894,-0.00005252,0.00
 018890,0.00040134,0.00023172,0.00011160,0.00011658,-0.00002611,0.00010
 695,-0.00018300,-0.00011533,0.00022847,-0.19261242,-0.13312730,0.20403
 988,-0.00567650,-0.00269401,-0.00141010,0.00097794,0.00328501,0.000210
 64,0.00117134,0.00193781,0.00083273,-0.19567759,0.07829774,0.00325859,
 0.00151139,0.00003399,0.00031922,-0.00090273,-0.00086213,-0.00041438,-
 0.00007574,-0.00061990,0.00017079,-0.00036159,-0.00008659,-0.00028615,
 -0.00010974,-0.00020095,0.00017128,-0.00040424,0.00048851,-0.00088116,
 0.20725090,-0.00886708,-0.00108906,-0.00018878,-0.00170513,-0.00016817
 ,-0.00277321,0.02079218,-0.00779887,-0.00063222,0.07325850,-0.06832102
 ,0.00266781,0.00177610,-0.00127585,0.00475606,-0.00059152,-0.00013733,
 -0.00043693,0.00036923,0.00039285,0.00040998,0.00014406,0.00117496,0.0
 0032386,-0.00058720,-0.00051706,-0.00022685,-0.00091094,0.00011435,-0.
 00238753,-0.08113437,0.07546126,-0.01514308,-0.00599459,-0.00041319,-0
 .00018707,-0.00728559,-0.00890089,-0.00826417,0.00370320,0.00614322,0.
 00848592,0.00810746,-0.03045644,0.00059852,0.00291018,0.00112851,0.001
 16763,0.00147415,0.00102847,0.00024097,0.00067201,0.00054887,0.0004929
 6,0.00112921,0.00054121,0.00014447,0.00007728,0.00028697,-0.00067763,-
 0.00186309,-0.00081838,-0.00269257,-0.00191890,0.02820558,0.01166973,0
 .00091696,-0.01602689,0.00120217,0.01592340,0.01807703,0.00262488,-0.0
 0137380,0.00352634,-0.08117732,-0.02227738,0.05796550,-0.00073006,-0.0
 0136219,-0.00123501,-0.00747846,-0.00644788,-0.00374273,-0.00342722,-0
 .00415271,-0.00122793,-0.00171128,-0.00041525,-0.00069158,-0.00106797,
 -0.00241575,-0.00029590,0.00185022,0.00089826,0.00094903,-0.00770344,-
 0.00254382,0.01583406,0.08594876,0.00855205,-0.00162625,-0.01835804,0.
 00862984,0.00667204,0.01148400,-0.01337212,-0.00657015,0.02051004,-0.0
 1960062,-0.04026917,0.01454134,-0.00174512,0.00014244,-0.00200588,-0.0
 0142638,-0.00020033,0.00020690,-0.00590485,-0.00656315,-0.00209473,-0.
 00193083,-0.00058233,-0.00152237,-0.00071988,-0.00261568,-0.00022436,0
 .00271285,-0.00190181,0.00425755,0.00155489,0.00216394,-0.00101132,0.0
 2325018,0.05135046,-0.00436839,-0.01031585,-0.01330583,0.00293484,-0.0
 0195774,-0.01738708,0.00636977,0.00282276,-0.00342201,0.06710626,0.031
 61075,-0.11842473,-0.00062982,-0.00057291,-0.00090502,-0.00011509,0.00
 075712,0.00110279,0.00300061,0.00341842,0.00288211,-0.00124849,-0.0003
 0286,-0.00107353,-0.00044725,-0.00183742,-0.00052938,-0.00019162,0.001
 75416,0.00102781,0.00072112,0.00040671,0.00270607,-0.07313193,-0.02578
 313,0.14732881\\-0.00000079,0.00000098,0.00000052,0.00000111,0.0000000
 8,0.00000098,-0.00000171,0.00000257,-0.00000470,0.00000362,-0.00000289
 ,0.00000098,-0.00000100,0.00000099,0.00000164,0.00000010,-0.00000029,0
 .00000192,0.00000060,0.00000008,0.00000101,-0.00000091,-0.00000009,-0.
 00000014,-0.00000231,-0.00000013,0.00000026,0.00000168,0.00000020,-0.0
 0000196,0.00000014,-0.00000073,-0.00000107,-0.00000053,-0.00000076,0.0
 0000054\\\@


 THE LENGTH OF A MEETING IS PROPORTIONAL TO THE
 SQUARE OF THE PARTICIPANTS.
 Job cpu time:       0 days  1 hours 13 minutes  4.0 seconds.
 Elapsed time:       0 days  0 hours 18 minutes 20.6 seconds.
 File lengths (MBytes):  RWF=     30 Int=      0 D2E=      0 Chk=      2 Scr=      1
 Normal termination of Gaussian 16 at Fri Jul  3 16:21:23 2020.
