 Entering Gaussian System, Link 0=/opt/gaussian/g16/legacy/g16/g16
 Initial command:
 /opt/gaussian/g16/legacy/g16/l1.exe "/scratch/1311825/Gau-2486.inp" -scrdir="/scratch/1311825/"
 Entering Link 1 = /opt/gaussian/g16/legacy/g16/l1.exe PID=      2496.
  
 Copyright (c) 1988,1990,1992,1993,1995,1998,2003,2009,2016,
            Gaussian, Inc.  All Rights Reserved.
  
 This is part of the Gaussian(R) 16 program.  It is based on
 the Gaussian(R) 09 system (copyright 2009, Gaussian, Inc.),
 the Gaussian(R) 03 system (copyright 2003, Gaussian, Inc.),
 the Gaussian(R) 98 system (copyright 1998, Gaussian, Inc.),
 the Gaussian(R) 94 system (copyright 1995, Gaussian, Inc.),
 the Gaussian 92(TM) system (copyright 1992, Gaussian, Inc.),
 the Gaussian 90(TM) system (copyright 1990, Gaussian, Inc.),
 the Gaussian 88(TM) system (copyright 1988, Gaussian, Inc.),
 the Gaussian 86(TM) system (copyright 1986, Carnegie Mellon
 University), and the Gaussian 82(TM) system (copyright 1983,
 Carnegie Mellon University). Gaussian is a federally registered
 trademark of Gaussian, Inc.
  
 This software contains proprietary and confidential information,
 including trade secrets, belonging to Gaussian, Inc.
  
 This software is provided under written license and may be
 used, copied, transmitted, or stored only in accord with that
 written license.
  
 The following legend is applicable only to US Government
 contracts under FAR:
  
                    RESTRICTED RIGHTS LEGEND
  
 Use, reproduction and disclosure by the US Government is
 subject to restrictions as set forth in subparagraphs (a)
 and (c) of the Commercial Computer Software - Restricted
 Rights clause in FAR 52.227-19.
  
 Gaussian, Inc.
 340 Quinnipiac St., Bldg. 40, Wallingford CT 06492
  
  
 ---------------------------------------------------------------
 Warning -- This program may not be used in any manner that
 competes with the business of Gaussian, Inc. or will provide
 assistance to any competitor of Gaussian, Inc.  The licensee
 of this program is prohibited from giving any competitor of
 Gaussian, Inc. access to this program.  By using this program,
 the user acknowledges that Gaussian, Inc. is engaged in the
 business of creating and licensing software in the field of
 computational chemistry and represents and warrants to the
 licensee that it is not a competitor of Gaussian, Inc. and that
 it will not use this program in any manner prohibited above.
 ---------------------------------------------------------------
  

 Cite this work as:
 Gaussian 16, Revision A.03,
 M. J. Frisch, G. W. Trucks, H. B. Schlegel, G. E. Scuseria, 
 M. A. Robb, J. R. Cheeseman, G. Scalmani, V. Barone, 
 G. A. Petersson, H. Nakatsuji, X. Li, M. Caricato, A. V. Marenich, 
 J. Bloino, B. G. Janesko, R. Gomperts, B. Mennucci, H. P. Hratchian, 
 J. V. Ortiz, A. F. Izmaylov, J. L. Sonnenberg, D. Williams-Young, 
 F. Ding, F. Lipparini, F. Egidi, J. Goings, B. Peng, A. Petrone, 
 T. Henderson, D. Ranasinghe, V. G. Zakrzewski, J. Gao, N. Rega, 
 G. Zheng, W. Liang, M. Hada, M. Ehara, K. Toyota, R. Fukuda, 
 J. Hasegawa, M. Ishida, T. Nakajima, Y. Honda, O. Kitao, H. Nakai, 
 T. Vreven, K. Throssell, J. A. Montgomery, Jr., J. E. Peralta, 
 F. Ogliaro, M. J. Bearpark, J. J. Heyd, E. N. Brothers, K. N. Kudin, 
 V. N. Staroverov, T. A. Keith, R. Kobayashi, J. Normand, 
 K. Raghavachari, A. P. Rendell, J. C. Burant, S. S. Iyengar, 
 J. Tomasi, M. Cossi, J. M. Millam, M. Klene, C. Adamo, R. Cammi, 
 J. W. Ochterski, R. L. Martin, K. Morokuma, O. Farkas, 
 J. B. Foresman, and D. J. Fox, Gaussian, Inc., Wallingford CT, 2016.
 
 ******************************************
 Gaussian 16:  EM64L-G16RevA.03 25-Dec-2016
                 3-Jul-2020 
 ******************************************
 %mem=16GB
 %nprocshared=4
 Will use up to    4 processors via shared memory.
 -------------------------------------------------
 # opt freq ub3lyp/6-31G(d,p) scf=(maxcycles=1024)
 -------------------------------------------------
 1/18=20,19=15,26=3,38=1/1,3;
 2/9=110,12=2,17=6,18=5,40=1/2;
 3/5=1,6=6,7=101,11=2,25=1,30=1,71=1,74=-5,116=2/1,2,3;
 4//1;
 5/5=2,7=1024,38=5/2;
 6/7=2,8=2,9=2,10=2,28=1/1;
 7//1,2,3,16;
 1/18=20,19=15,26=3/3(2);
 2/9=110/2;
 99//99;
 2/9=110/2;
 3/5=1,6=6,7=101,11=2,25=1,30=1,71=1,74=-5,116=2/1,2,3;
 4/5=5,16=3,69=1/1;
 5/5=2,7=1024,38=5/2;
 7//1,2,3,16;
 1/18=20,19=15,26=3/3(-5);
 2/9=110/2;
 6/7=2,8=2,9=2,10=2,19=2,28=1/1;
 99/9=1/99;
 ---------------
 something title
 ---------------
 Symbolic Z-matrix:
 Charge =  0 Multiplicity = 1
 N                     1.48772  -0.70944  -0.25813 
 B                     1.81983   0.63983  -0.3511 
 N                    -1.96349   0.04076  -0.23309 
 B                    -1.23559   0.17304   0.9485 
 H                    -2.08789   0.79809  -0.88909 
 H                     1.31875   1.30185  -1.21103 
 H                     2.61245   1.09865   0.41674 
 H                     1.85461  -1.3235    0.45408 
 H                     0.79809  -1.14573  -0.84969 
 H                    -2.43857  -0.80793  -0.50229 
 H                    -1.1503   -0.76578   1.68507 
 H                    -0.747     1.22924   1.21709 
 
 Add virtual bond connecting atoms N1         and B4         Dist= 5.87D+00.
 Add virtual bond connecting atoms B2         and H12        Dist= 5.79D+00.
 Add virtual bond connecting atoms H9         and N3         Dist= 5.80D+00.
 Add virtual bond connecting atoms H9         and B4         Dist= 5.70D+00.

 GradGradGradGradGradGradGradGradGradGradGradGradGradGradGradGradGradGrad
 Berny optimization.
 Initialization pass.
                           ----------------------------
                           !    Initial Parameters    !
                           ! (Angstroms and Degrees)  !
 --------------------------                            --------------------------
 ! Name  Definition              Value          Derivative Info.                !
 --------------------------------------------------------------------------------
 ! R1    R(1,2)                  1.3926         estimate D2E/DX2                !
 ! R2    R(1,4)                  3.1066         estimate D2E/DX2                !
 ! R3    R(1,8)                  1.0094         estimate D2E/DX2                !
 ! R4    R(1,9)                  1.0079         estimate D2E/DX2                !
 ! R5    R(2,6)                  1.1953         estimate D2E/DX2                !
 ! R6    R(2,7)                  1.1951         estimate D2E/DX2                !
 ! R7    R(2,12)                 3.0652         estimate D2E/DX2                !
 ! R8    R(3,4)                  1.3941         estimate D2E/DX2                !
 ! R9    R(3,5)                  1.0096         estimate D2E/DX2                !
 ! R10   R(3,9)                  3.0683         estimate D2E/DX2                !
 ! R11   R(3,10)                 1.0092         estimate D2E/DX2                !
 ! R12   R(4,9)                  3.018          estimate D2E/DX2                !
 ! R13   R(4,11)                 1.1963         estimate D2E/DX2                !
 ! R14   R(4,12)                 1.1943         estimate D2E/DX2                !
 ! A1    A(2,1,4)               87.6939         estimate D2E/DX2                !
 ! A2    A(2,1,8)              123.3538         estimate D2E/DX2                !
 ! A3    A(2,1,9)              122.9133         estimate D2E/DX2                !
 ! A4    A(4,1,8)              102.5552         estimate D2E/DX2                !
 ! A5    A(8,1,9)              113.5453         estimate D2E/DX2                !
 ! A6    A(1,2,6)              118.9891         estimate D2E/DX2                !
 ! A7    A(1,2,7)              119.1578         estimate D2E/DX2                !
 ! A8    A(1,2,12)              87.2744         estimate D2E/DX2                !
 ! A9    A(6,2,7)              121.8427         estimate D2E/DX2                !
 ! A10   A(6,2,12)              84.8662         estimate D2E/DX2                !
 ! A11   A(7,2,12)              98.7927         estimate D2E/DX2                !
 ! A12   A(4,3,5)              122.9468         estimate D2E/DX2                !
 ! A13   A(4,3,10)             123.4827         estimate D2E/DX2                !
 ! A14   A(5,3,9)              105.6874         estimate D2E/DX2                !
 ! A15   A(5,3,10)             113.5464         estimate D2E/DX2                !
 ! A16   A(9,3,10)              92.5733         estimate D2E/DX2                !
 ! A17   A(1,4,3)               95.8286         estimate D2E/DX2                !
 ! A18   A(1,4,11)              87.3475         estimate D2E/DX2                !
 ! A19   A(1,4,12)              88.8507         estimate D2E/DX2                !
 ! A20   A(3,4,11)             118.9867         estimate D2E/DX2                !
 ! A21   A(3,4,12)             119.2171         estimate D2E/DX2                !
 ! A22   A(9,4,11)              88.6185         estimate D2E/DX2                !
 ! A23   A(9,4,12)             104.1674         estimate D2E/DX2                !
 ! A24   A(11,4,12)            121.7603         estimate D2E/DX2                !
 ! A25   A(1,9,3)              109.2986         estimate D2E/DX2                !
 ! A26   A(2,12,4)              93.2947         estimate D2E/DX2                !
 ! D1    D(4,1,2,6)            -75.0226         estimate D2E/DX2                !
 ! D2    D(4,1,2,7)            106.1279         estimate D2E/DX2                !
 ! D3    D(4,1,2,12)             7.5776         estimate D2E/DX2                !
 ! D4    D(8,1,2,6)           -178.5522         estimate D2E/DX2                !
 ! D5    D(8,1,2,7)              2.5983         estimate D2E/DX2                !
 ! D6    D(8,1,2,12)           -95.9521         estimate D2E/DX2                !
 ! D7    D(9,1,2,6)             -3.8525         estimate D2E/DX2                !
 ! D8    D(9,1,2,7)            177.2981         estimate D2E/DX2                !
 ! D9    D(9,1,2,12)            78.7477         estimate D2E/DX2                !
 ! D10   D(2,1,4,3)             99.4935         estimate D2E/DX2                !
 ! D11   D(2,1,4,11)          -141.6304         estimate D2E/DX2                !
 ! D12   D(2,1,4,12)           -19.7622         estimate D2E/DX2                !
 ! D13   D(8,1,4,3)           -136.8119         estimate D2E/DX2                !
 ! D14   D(8,1,4,11)           -17.9358         estimate D2E/DX2                !
 ! D15   D(8,1,4,12)           103.9324         estimate D2E/DX2                !
 ! D16   D(2,1,9,3)            -65.6899         estimate D2E/DX2                !
 ! D17   D(8,1,9,3)            109.482          estimate D2E/DX2                !
 ! D18   D(1,2,12,4)           -20.0781         estimate D2E/DX2                !
 ! D19   D(6,2,12,4)            99.3561         estimate D2E/DX2                !
 ! D20   D(7,2,12,4)          -139.1695         estimate D2E/DX2                !
 ! D21   D(5,3,4,1)            -90.9261         estimate D2E/DX2                !
 ! D22   D(5,3,4,11)           178.8806         estimate D2E/DX2                !
 ! D23   D(5,3,4,12)             1.0218         estimate D2E/DX2                !
 ! D24   D(10,3,4,1)            90.9772         estimate D2E/DX2                !
 ! D25   D(10,3,4,11)            0.7839         estimate D2E/DX2                !
 ! D26   D(10,3,4,12)         -177.0749         estimate D2E/DX2                !
 ! D27   D(5,3,9,1)             93.255          estimate D2E/DX2                !
 ! D28   D(10,3,9,1)          -151.405          estimate D2E/DX2                !
 ! D29   D(1,4,12,2)             8.8444         estimate D2E/DX2                !
 ! D30   D(3,4,12,2)           -87.192          estimate D2E/DX2                !
 ! D31   D(9,4,12,2)            -2.287          estimate D2E/DX2                !
 ! D32   D(11,4,12,2)           95.0109         estimate D2E/DX2                !
 --------------------------------------------------------------------------------
 Trust Radius=3.00D-01 FncErr=1.00D-07 GrdErr=1.00D-06 EigMax=2.50D+02 EigMin=1.00D-04
 Number of steps in this run=     82 maximum allowed number of steps=    100.
 GradGradGradGradGradGradGradGradGradGradGradGradGradGradGradGradGradGrad

                          Input orientation:                          
 ---------------------------------------------------------------------
 Center     Atomic      Atomic             Coordinates (Angstroms)
 Number     Number       Type             X           Y           Z
 ---------------------------------------------------------------------
      1          7           0        1.487720   -0.709440   -0.258130
      2          5           0        1.819830    0.639830   -0.351100
      3          7           0       -1.963490    0.040760   -0.233090
      4          5           0       -1.235590    0.173040    0.948500
      5          1           0       -2.087890    0.798090   -0.889090
      6          1           0        1.318750    1.301850   -1.211030
      7          1           0        2.612450    1.098650    0.416740
      8          1           0        1.854610   -1.323500    0.454080
      9          1           0        0.798090   -1.145730   -0.849690
     10          1           0       -2.438570   -0.807930   -0.502290
     11          1           0       -1.150300   -0.765780    1.685070
     12          1           0       -0.747000    1.229240    1.217090
 ---------------------------------------------------------------------
                    Distance matrix (angstroms):
                    1          2          3          4          5
     1  N    0.000000
     2  B    1.392649   0.000000
     3  N    3.531894   3.832274   0.000000
     4  B    3.106629   3.352975   1.394092   0.000000
     5  H    3.931379   3.947753   1.009634   2.119868   0.000000
     6  H    2.232007   1.195337   3.649632   3.530217   3.458701
     7  H    2.233754   1.195132   4.741375   3.993361   4.887609
     8  H    1.009416   2.122308   4.112335   3.468922   4.674244
     9  H    1.007910   2.116783   3.068270   3.018028   3.479780
    10  H    3.935107   4.500315   1.009180   2.124678   1.688754
    11  H    3.276942   3.865669   2.234082   1.196325   3.154531
    12  H    3.305863   3.065166   2.235029   1.194328   2.533746
                    6          7          8          9         10
     6  H    0.000000
     7  H    2.089159   0.000000
     8  H    3.154711   2.538213   0.000000
     9  H    2.528300   3.151664   1.687499   0.000000
    10  H    4.367028   5.476538   4.428527   3.272730   0.000000
    11  H    4.331131   4.386690   3.294825   3.219564   2.538890
    12  H    3.188787   3.455940   3.723848   3.507045   3.157173
                   11         12
    11  H    0.000000
    12  H    2.088483   0.000000
 Stoichiometry    B2H8N2
 Framework group  C1[X(B2H8N2)]
 Deg. of freedom    30
 Full point group                 C1      NOp   1
 Largest Abelian subgroup         C1      NOp   1
 Largest concise Abelian subgroup C1      NOp   1
                         Standard orientation:                         
 ---------------------------------------------------------------------
 Center     Atomic      Atomic             Coordinates (Angstroms)
 Number     Number       Type             X           Y           Z
 ---------------------------------------------------------------------
      1          7           0        1.529460   -0.662458   -0.126736
      2          5           0        1.839868    0.694992   -0.105620
      3          7           0       -1.919497    0.030697   -0.440598
      4          5           0       -1.328327    0.104551    0.819781
      5          1           0       -1.988081    0.823310   -1.062226
      6          1           0        1.421371    1.398572   -0.976634
      7          1           0        2.533404    1.120168    0.769922
      8          1           0        1.829706   -1.311572    0.585601
      9          1           0        0.918488   -1.073914   -0.814704
     10          1           0       -2.343417   -0.808013   -0.808431
     11          1           0       -1.303415   -0.874574    1.506720
     12          1           0       -0.895498    1.150634    1.200292
 ---------------------------------------------------------------------
 Rotational constants (GHZ):          12.7381281           2.7425134           2.7003176
 Standard basis: 6-31G(d,p) (6D, 7F)
 There are   100 symmetry adapted cartesian basis functions of A   symmetry.
 There are   100 symmetry adapted basis functions of A   symmetry.
   100 basis functions,   168 primitive gaussians,   100 cartesian basis functions
    16 alpha electrons       16 beta electrons
       nuclear repulsion energy       102.5700057888 Hartrees.
 NAtoms=   12 NActive=   12 NUniq=   12 SFac= 1.00D+00 NAtFMM=   60 NAOKFM=F Big=F
 Integral buffers will be    131072 words long.
 Raffenetti 2 integral format.
 Two-electron integral symmetry is turned on.
 One-electron integrals computed using PRISM.
 NBasis=   100 RedAO= T EigKep=  1.04D-02  NBF=   100
 NBsUse=   100 1.00D-06 EigRej= -1.00D+00 NBFU=   100
 ExpMin= 1.27D-01 ExpMax= 4.17D+03 ExpMxC= 6.27D+02 IAcc=3 IRadAn=         5 AccDes= 0.00D+00
 Harris functional with IExCor=  402 and IRadAn=       5 diagonalized for initial guess.
 HarFok:  IExCor=  402 AccDes= 0.00D+00 IRadAn=         5 IDoV= 1 UseB2=F ITyADJ=14
 ICtDFT=  3500011 ScaDFX=  1.000000  1.000000  1.000000  1.000000
 FoFCou: FMM=F IPFlag=           0 FMFlag=      100000 FMFlg1=           0
         NFxFlg=           0 DoJE=T BraDBF=F KetDBF=T FulRan=T
         wScrn=  0.000000 ICntrl=       500 IOpCl=  0 I1Cent=   200000004 NGrid=           0
         NMat0=    1 NMatS0=      1 NMatT0=    0 NMatD0=    1 NMtDS0=    0 NMtDT0=    0
 Petite list used in FoFCou.
 Initial guess <Sx>= 0.0000 <Sy>= 0.0000 <Sz>= 0.0000 <S**2>=-0.0000 S=-0.0000
 Keep R1 and R2 ints in memory in canonical form, NReq=29209894.
 Requested convergence on RMS density matrix=1.00D-08 within1024 cycles.
 Requested convergence on MAX density matrix=1.00D-06.
 Requested convergence on             energy=1.00D-06.
 No special actions if energy rises.
 Integral accuracy reduced to 1.0D-05 until final iterations.
 Initial convergence to 1.0D-05 achieved.  Increase integral accuracy.
 SCF Done:  E(UB3LYP) =  -164.096878427     A.U. after   12 cycles
            NFock= 12  Conv=0.43D-08     -V/T= 2.0100
 <Sx>= 0.0000 <Sy>= 0.0000 <Sz>= 0.0000 <S**2>= 0.0000 S= 0.0000
 <L.S>= 0.000000000000E+00
 Annihilation of the first spin contaminant:
 S**2 before annihilation     0.0000,   after     0.0000

 **********************************************************************

            Population analysis using the SCF density.

 **********************************************************************

 Orbital symmetries:
 Alpha Orbitals:
       Occupied  (A) (A) (A) (A) (A) (A) (A) (A) (A) (A) (A) (A)
                 (A) (A) (A) (A)
       Virtual   (A) (A) (A) (A) (A) (A) (A) (A) (A) (A) (A) (A)
                 (A) (A) (A) (A) (A) (A) (A) (A) (A) (A) (A) (A)
                 (A) (A) (A) (A) (A) (A) (A) (A) (A) (A) (A) (A)
                 (A) (A) (A) (A) (A) (A) (A) (A) (A) (A) (A) (A)
                 (A) (A) (A) (A) (A) (A) (A) (A) (A) (A) (A) (A)
                 (A) (A) (A) (A) (A) (A) (A) (A) (A) (A) (A) (A)
                 (A) (A) (A) (A) (A) (A) (A) (A) (A) (A) (A) (A)
 Beta  Orbitals:
       Occupied  (A) (A) (A) (A) (A) (A) (A) (A) (A) (A) (A) (A)
                 (A) (A) (A) (A)
       Virtual   (A) (A) (A) (A) (A) (A) (A) (A) (A) (A) (A) (A)
                 (A) (A) (A) (A) (A) (A) (A) (A) (A) (A) (A) (A)
                 (A) (A) (A) (A) (A) (A) (A) (A) (A) (A) (A) (A)
                 (A) (A) (A) (A) (A) (A) (A) (A) (A) (A) (A) (A)
                 (A) (A) (A) (A) (A) (A) (A) (A) (A) (A) (A) (A)
                 (A) (A) (A) (A) (A) (A) (A) (A) (A) (A) (A) (A)
                 (A) (A) (A) (A) (A) (A) (A) (A) (A) (A) (A) (A)
 The electronic state is 1-A.
 Alpha  occ. eigenvalues --  -14.33350 -14.33178  -6.73112  -6.72863  -0.86395
 Alpha  occ. eigenvalues --   -0.86056  -0.51837  -0.51493  -0.50692  -0.50476
 Alpha  occ. eigenvalues --   -0.38618  -0.38056  -0.31289  -0.30936  -0.30422
 Alpha  occ. eigenvalues --   -0.28001
 Alpha virt. eigenvalues --    0.02264   0.03521   0.07241   0.09625   0.13598
 Alpha virt. eigenvalues --    0.14272   0.19239   0.20008   0.23655   0.24837
 Alpha virt. eigenvalues --    0.25718   0.26794   0.42417   0.44274   0.45608
 Alpha virt. eigenvalues --    0.46902   0.47856   0.56278   0.57185   0.64762
 Alpha virt. eigenvalues --    0.72971   0.73131   0.74653   0.81930   0.83130
 Alpha virt. eigenvalues --    0.85572   0.87896   0.91334   0.92082   0.93244
 Alpha virt. eigenvalues --    0.95626   0.97117   1.13200   1.14716   1.16047
 Alpha virt. eigenvalues --    1.19273   1.21217   1.22214   1.26332   1.31167
 Alpha virt. eigenvalues --    1.47478   1.49239   1.58530   1.60583   1.69917
 Alpha virt. eigenvalues --    1.70873   1.73894   1.74964   2.02377   2.05561
 Alpha virt. eigenvalues --    2.07893   2.08834   2.15908   2.16528   2.26079
 Alpha virt. eigenvalues --    2.26864   2.30633   2.33198   2.39008   2.39455
 Alpha virt. eigenvalues --    2.42129   2.43116   2.56312   2.57918   2.62027
 Alpha virt. eigenvalues --    2.62185   2.64730   2.64972   2.66900   2.68146
 Alpha virt. eigenvalues --    2.94428   2.95034   3.12512   3.13130   3.23129
 Alpha virt. eigenvalues --    3.23986   3.28178   3.28696   3.62451   3.62775
 Alpha virt. eigenvalues --    3.65794   3.69793   4.09446   4.16168
  Beta  occ. eigenvalues --  -14.33350 -14.33178  -6.73112  -6.72863  -0.86395
  Beta  occ. eigenvalues --   -0.86056  -0.51837  -0.51493  -0.50692  -0.50476
  Beta  occ. eigenvalues --   -0.38618  -0.38056  -0.31289  -0.30936  -0.30422
  Beta  occ. eigenvalues --   -0.28001
  Beta virt. eigenvalues --    0.02264   0.03521   0.07241   0.09625   0.13598
  Beta virt. eigenvalues --    0.14272   0.19239   0.20008   0.23655   0.24837
  Beta virt. eigenvalues --    0.25718   0.26794   0.42417   0.44274   0.45608
  Beta virt. eigenvalues --    0.46902   0.47856   0.56278   0.57185   0.64762
  Beta virt. eigenvalues --    0.72971   0.73131   0.74653   0.81930   0.83130
  Beta virt. eigenvalues --    0.85572   0.87896   0.91334   0.92082   0.93244
  Beta virt. eigenvalues --    0.95626   0.97117   1.13200   1.14716   1.16047
  Beta virt. eigenvalues --    1.19273   1.21217   1.22214   1.26332   1.31167
  Beta virt. eigenvalues --    1.47478   1.49239   1.58530   1.60583   1.69917
  Beta virt. eigenvalues --    1.70873   1.73894   1.74964   2.02377   2.05561
  Beta virt. eigenvalues --    2.07893   2.08834   2.15908   2.16528   2.26079
  Beta virt. eigenvalues --    2.26864   2.30633   2.33198   2.39008   2.39455
  Beta virt. eigenvalues --    2.42129   2.43116   2.56312   2.57918   2.62027
  Beta virt. eigenvalues --    2.62185   2.64730   2.64972   2.66900   2.68146
  Beta virt. eigenvalues --    2.94428   2.95034   3.12512   3.13130   3.23129
  Beta virt. eigenvalues --    3.23986   3.28178   3.28696   3.62451   3.62775
  Beta virt. eigenvalues --    3.65794   3.69793   4.09446   4.16168
          Condensed to atoms (all electrons):
               1          2          3          4          5          6
     1  N    6.371064   0.505304  -0.004671   0.013983  -0.000003  -0.025758
     2  B    0.505304   3.535529   0.000756   0.009522   0.000066   0.409821
     3  N   -0.004671   0.000756   6.389776   0.504177   0.357525  -0.000416
     4  B    0.013983   0.009522   0.504177   3.532945  -0.035345   0.000470
     5  H   -0.000003   0.000066   0.357525  -0.035345   0.447404   0.000278
     6  H   -0.025758   0.409821  -0.000416   0.000470   0.000278   0.732100
     7  H   -0.026788   0.413028   0.000032  -0.000218  -0.000002  -0.028581
     8  H    0.355996  -0.034992   0.000036   0.000139   0.000005   0.003684
     9  H    0.351139  -0.033827   0.005040   0.002043  -0.000016  -0.004632
    10  H   -0.000033   0.000051   0.356305  -0.036388  -0.031383  -0.000009
    11  H   -0.001355  -0.000582  -0.027422   0.408713   0.003687   0.000051
    12  H   -0.002326   0.003470  -0.024530   0.409348  -0.004028  -0.000534
               7          8          9         10         11         12
     1  N   -0.026788   0.355996   0.351139  -0.000033  -0.001355  -0.002326
     2  B    0.413028  -0.034992  -0.033827   0.000051  -0.000582   0.003470
     3  N    0.000032   0.000036   0.005040   0.356305  -0.027422  -0.024530
     4  B   -0.000218   0.000139   0.002043  -0.036388   0.408713   0.409348
     5  H   -0.000002   0.000005  -0.000016  -0.031383   0.003687  -0.004028
     6  H   -0.028581   0.003684  -0.004632  -0.000009   0.000051  -0.000534
     7  H    0.719119  -0.004090   0.003708  -0.000000  -0.000021   0.000070
     8  H   -0.004090   0.448066  -0.030738  -0.000002   0.000395  -0.000014
     9  H    0.003708  -0.030738   0.449091   0.000097   0.000114   0.000093
    10  H   -0.000000  -0.000002   0.000097   0.456915  -0.004029   0.003665
    11  H   -0.000021   0.000395   0.000114  -0.004029   0.734592  -0.026618
    12  H    0.000070  -0.000014   0.000093   0.003665  -0.026618   0.716476
          Atomic-Atomic Spin Densities.
               1          2          3          4          5          6
     1  N   -0.000000   0.000000  -0.000000  -0.000000  -0.000000  -0.000000
     2  B    0.000000   0.000000   0.000000   0.000000  -0.000000   0.000000
     3  N   -0.000000   0.000000  -0.000000   0.000000   0.000000  -0.000000
     4  B   -0.000000   0.000000   0.000000   0.000000  -0.000000  -0.000000
     5  H   -0.000000  -0.000000   0.000000  -0.000000  -0.000000   0.000000
     6  H   -0.000000   0.000000  -0.000000  -0.000000   0.000000  -0.000000
     7  H   -0.000000   0.000000   0.000000  -0.000000   0.000000  -0.000000
     8  H   -0.000000   0.000000  -0.000000  -0.000000  -0.000000  -0.000000
     9  H   -0.000000  -0.000000   0.000000   0.000000  -0.000000  -0.000000
    10  H   -0.000000  -0.000000   0.000000  -0.000000   0.000000   0.000000
    11  H   -0.000000  -0.000000   0.000000  -0.000000   0.000000  -0.000000
    12  H   -0.000000   0.000000   0.000000  -0.000000   0.000000   0.000000
               7          8          9         10         11         12
     1  N   -0.000000  -0.000000  -0.000000  -0.000000  -0.000000  -0.000000
     2  B    0.000000   0.000000  -0.000000  -0.000000  -0.000000   0.000000
     3  N    0.000000  -0.000000   0.000000   0.000000   0.000000   0.000000
     4  B   -0.000000  -0.000000   0.000000  -0.000000  -0.000000  -0.000000
     5  H    0.000000  -0.000000  -0.000000   0.000000   0.000000   0.000000
     6  H   -0.000000  -0.000000  -0.000000   0.000000  -0.000000   0.000000
     7  H   -0.000000  -0.000000  -0.000000  -0.000000  -0.000000  -0.000000
     8  H   -0.000000  -0.000000   0.000000   0.000000  -0.000000   0.000000
     9  H   -0.000000   0.000000  -0.000000  -0.000000   0.000000   0.000000
    10  H   -0.000000   0.000000  -0.000000   0.000000  -0.000000   0.000000
    11  H   -0.000000  -0.000000   0.000000  -0.000000   0.000000  -0.000000
    12  H   -0.000000   0.000000   0.000000   0.000000  -0.000000   0.000000
 Mulliken charges and spin densities:
               1          2
     1  N   -0.536554  -0.000000
     2  B    0.191853   0.000000
     3  N   -0.556608   0.000000
     4  B    0.190611   0.000000
     5  H    0.261813  -0.000000
     6  H   -0.086475  -0.000000
     7  H   -0.076257  -0.000000
     8  H    0.261515  -0.000000
     9  H    0.257888  -0.000000
    10  H    0.254812   0.000000
    11  H   -0.087526   0.000000
    12  H   -0.075072   0.000000
 Sum of Mulliken charges =   0.00000   0.00000
 Mulliken charges and spin densities with hydrogens summed into heavy atoms:
               1          2
     1  N   -0.017150  -0.000000
     2  B    0.029121   0.000000
     3  N   -0.039983   0.000000
     4  B    0.028012   0.000000
 Electronic spatial extent (au):  <R**2>=            489.2798
 Charge=              0.0000 electrons
 Dipole moment (field-independent basis, Debye):
    X=             -1.2867    Y=             -2.0271    Z=             -1.7577  Tot=              2.9757
 Quadrupole moment (field-independent basis, Debye-Ang):
   XX=            -26.7110   YY=            -25.6918   ZZ=            -27.0336
   XY=             -2.7039   XZ=              4.4249   YZ=             -0.2420
 Traceless Quadrupole moment (field-independent basis, Debye-Ang):
   XX=             -0.2322   YY=              0.7870   ZZ=             -0.5548
   XY=             -2.7039   XZ=              4.4249   YZ=             -0.2420
 Octapole moment (field-independent basis, Debye-Ang**2):
  XXX=            -14.9499  YYY=            -12.6302  ZZZ=            -10.1356  XYY=             -3.5533
  XXY=             -9.3245  XXZ=             -7.6485  XZZ=             -3.9085  YZZ=             -3.4108
  YYZ=             -3.8631  XYZ=             -1.9786
 Hexadecapole moment (field-independent basis, Debye-Ang**3):
 XXXX=           -499.6093 YYYY=           -102.0555 ZZZZ=           -100.0400 XXXY=            -13.1978
 XXXZ=             27.4401 YYYX=            -19.1213 YYYZ=             -0.5308 ZZZX=             16.6055
 ZZZY=              0.2735 XXYY=            -93.8545 XXZZ=            -91.9770 YYZZ=            -32.2714
 XXYZ=             -4.3093 YYXZ=             11.0684 ZZXY=             -8.0784
 N-N= 1.025700057888D+02 E-N=-5.855278367145D+02  KE= 1.624685909068D+02
                          Isotropic Fermi Contact Couplings
        Atom                 a.u.       MegaHertz       Gauss      10(-4) cm-1
     1  N(14)             -0.00000      -0.00000      -0.00000      -0.00000
     2  B(11)              0.00000       0.00000       0.00000       0.00000
     3  N(14)              0.00000       0.00000       0.00000       0.00000
     4  B(11)              0.00000       0.00000       0.00000       0.00000
     5  H(1)               0.00000       0.00000       0.00000       0.00000
     6  H(1)               0.00000       0.00000       0.00000       0.00000
     7  H(1)               0.00000       0.00000       0.00000       0.00000
     8  H(1)               0.00000       0.00000       0.00000       0.00000
     9  H(1)               0.00000       0.00000       0.00000       0.00000
    10  H(1)               0.00000       0.00000       0.00000       0.00000
    11  H(1)               0.00000       0.00000       0.00000       0.00000
    12  H(1)               0.00000       0.00000       0.00000       0.00000
 --------------------------------------------------------
       Center         ----  Spin Dipole Couplings  ----
                      3XX-RR        3YY-RR        3ZZ-RR
 --------------------------------------------------------
     1   Atom        0.000000      0.000000      0.000000
     2   Atom        0.000000      0.000000      0.000000
     3   Atom        0.000000      0.000000      0.000000
     4   Atom        0.000000      0.000000      0.000000
     5   Atom        0.000000      0.000000      0.000000
     6   Atom        0.000000      0.000000      0.000000
     7   Atom        0.000000      0.000000      0.000000
     8   Atom        0.000000      0.000000      0.000000
     9   Atom        0.000000      0.000000      0.000000
    10   Atom        0.000000      0.000000      0.000000
    11   Atom        0.000000      0.000000      0.000000
    12   Atom        0.000000      0.000000      0.000000
 --------------------------------------------------------
                        XY            XZ            YZ
 --------------------------------------------------------
     1   Atom        0.000000      0.000000      0.000000
     2   Atom        0.000000      0.000000      0.000000
     3   Atom        0.000000      0.000000      0.000000
     4   Atom        0.000000      0.000000      0.000000
     5   Atom        0.000000      0.000000      0.000000
     6   Atom        0.000000      0.000000      0.000000
     7   Atom        0.000000      0.000000      0.000000
     8   Atom        0.000000      0.000000      0.000000
     9   Atom        0.000000      0.000000      0.000000
    10   Atom        0.000000      0.000000      0.000000
    11   Atom        0.000000      0.000000      0.000000
    12   Atom        0.000000      0.000000      0.000000
 --------------------------------------------------------


 ---------------------------------------------------------------------------------
              Anisotropic Spin Dipole Couplings in Principal Axis System
 ---------------------------------------------------------------------------------

       Atom             a.u.   MegaHertz   Gauss  10(-4) cm-1        Axes

              Baa     0.0000     0.000     0.000     0.000  1.0000  0.0000  0.0000
     1 N(14)  Bbb     0.0000     0.000     0.000     0.000 -0.0000  1.0000  0.0000
              Bcc     0.0000     0.000     0.000     0.000  0.0000  0.0000  1.0000
 
              Baa     0.0000     0.000     0.000     0.000  1.0000  0.0000  0.0000
     2 B(11)  Bbb     0.0000     0.000     0.000     0.000 -0.0000  1.0000  0.0000
              Bcc     0.0000     0.000     0.000     0.000  0.0000  0.0000  1.0000
 
              Baa     0.0000     0.000     0.000     0.000  1.0000  0.0000  0.0000
     3 N(14)  Bbb     0.0000     0.000     0.000     0.000 -0.0000  1.0000  0.0000
              Bcc     0.0000     0.000     0.000     0.000  0.0000  0.0000  1.0000
 
              Baa     0.0000     0.000     0.000     0.000  1.0000  0.0000  0.0000
     4 B(11)  Bbb     0.0000     0.000     0.000     0.000 -0.0000  1.0000  0.0000
              Bcc     0.0000     0.000     0.000     0.000  0.0000  0.0000  1.0000
 
              Baa     0.0000     0.000     0.000     0.000  1.0000  0.0000  0.0000
     5 H(1)   Bbb     0.0000     0.000     0.000     0.000 -0.0000  1.0000  0.0000
              Bcc     0.0000     0.000     0.000     0.000  0.0000  0.0000  1.0000
 
              Baa     0.0000     0.000     0.000     0.000  1.0000  0.0000  0.0000
     6 H(1)   Bbb     0.0000     0.000     0.000     0.000 -0.0000  1.0000  0.0000
              Bcc     0.0000     0.000     0.000     0.000  0.0000  0.0000  1.0000
 
              Baa     0.0000     0.000     0.000     0.000  1.0000  0.0000  0.0000
     7 H(1)   Bbb     0.0000     0.000     0.000     0.000 -0.0000  1.0000  0.0000
              Bcc     0.0000     0.000     0.000     0.000  0.0000  0.0000  1.0000
 
              Baa     0.0000     0.000     0.000     0.000  1.0000  0.0000  0.0000
     8 H(1)   Bbb     0.0000     0.000     0.000     0.000 -0.0000  1.0000  0.0000
              Bcc     0.0000     0.000     0.000     0.000  0.0000  0.0000  1.0000
 
              Baa     0.0000     0.000     0.000     0.000  1.0000  0.0000  0.0000
     9 H(1)   Bbb     0.0000     0.000     0.000     0.000 -0.0000  1.0000  0.0000
              Bcc     0.0000     0.000     0.000     0.000  0.0000  0.0000  1.0000
 
              Baa     0.0000     0.000     0.000     0.000  1.0000  0.0000  0.0000
    10 H(1)   Bbb     0.0000     0.000     0.000     0.000 -0.0000  1.0000  0.0000
              Bcc     0.0000     0.000     0.000     0.000  0.0000  0.0000  1.0000
 
              Baa     0.0000     0.000     0.000     0.000  1.0000  0.0000  0.0000
    11 H(1)   Bbb     0.0000     0.000     0.000     0.000 -0.0000  1.0000  0.0000
              Bcc     0.0000     0.000     0.000     0.000  0.0000  0.0000  1.0000
 
              Baa     0.0000     0.000     0.000     0.000  1.0000  0.0000  0.0000
    12 H(1)   Bbb     0.0000     0.000     0.000     0.000 -0.0000  1.0000  0.0000
              Bcc     0.0000     0.000     0.000     0.000  0.0000  0.0000  1.0000
 

 ---------------------------------------------------------------------------------

 Calling FoFJK, ICntrl=      2127 FMM=F ISym2X=0 I1Cent= 0 IOpClX= 1 NMat=1 NMatS=1 NMatT=0.
 ***** Axes restored to original set *****
 -------------------------------------------------------------------
 Center     Atomic                   Forces (Hartrees/Bohr)
 Number     Number              X              Y              Z
 -------------------------------------------------------------------
      1        7           0.001350831    0.000609812    0.000660281
      2        5           0.001138139   -0.000185072   -0.000392644
      3        7          -0.000675528    0.000278223   -0.000146680
      4        5          -0.001046796   -0.000207749    0.000422718
      5        1          -0.000032699   -0.000348974    0.000180731
      6        1           0.000005656    0.000046168   -0.000030012
      7        1           0.000149549   -0.000040940   -0.000112157
      8        1           0.000042307    0.000071981   -0.000109847
      9        1          -0.000738301   -0.000352706   -0.000443788
     10        1           0.000010561    0.000179889   -0.000035806
     11        1          -0.000077502    0.000041896   -0.000032599
     12        1          -0.000126217   -0.000092528    0.000039803
 -------------------------------------------------------------------
 Cartesian Forces:  Max     0.001350831 RMS     0.000445302

 GradGradGradGradGradGradGradGradGradGradGradGradGradGradGradGradGradGrad
 Berny optimization.
 FormGI is forming the generalized inverse of G from B-inverse, IUseBI=4.
 Internal  Forces:  Max     0.001198432 RMS     0.000273563
 Search for a local minimum.
 Step number   1 out of a maximum of   82
 All quantities printed in internal units (Hartrees-Bohrs-Radians)
 Mixed Optimization -- En-DIIS/RFO-DIIS
 Second derivative matrix not updated -- first step.
 ITU=  0
     Eigenvalues ---    0.00483   0.01224   0.02954   0.03263   0.03734
     Eigenvalues ---    0.04117   0.04260   0.04934   0.05351   0.05475
     Eigenvalues ---    0.06151   0.07436   0.08250   0.08968   0.10590
     Eigenvalues ---    0.10763   0.12060   0.12179   0.13977   0.15504
     Eigenvalues ---    0.24656   0.24936   0.25009   0.25024   0.43042
     Eigenvalues ---    0.45222   0.45906   0.46034   0.46070   0.46110
 RFO step:  Lambda=-1.04404211D-04 EMin= 4.82563945D-03
 Linear search not attempted -- first point.
 Iteration  1 RMS(Cart)=  0.00985172 RMS(Int)=  0.00001165
 Iteration  2 RMS(Cart)=  0.00001790 RMS(Int)=  0.00000333
 Iteration  3 RMS(Cart)=  0.00000000 RMS(Int)=  0.00000333
 Variable       Old X    -DE/DX   Delta X   Delta X   Delta X     New X
                                 (Linear)    (Quad)   (Total)
    R1        2.63172  -0.00006   0.00000  -0.00019  -0.00019   2.63153
    R2        5.87068   0.00068   0.00000   0.04028   0.04028   5.91096
    R3        1.90752  -0.00011   0.00000  -0.00023  -0.00023   1.90729
    R4        1.90467   0.00120   0.00000   0.00280   0.00280   1.90747
    R5        2.25886   0.00004   0.00000   0.00018   0.00018   2.25904
    R6        2.25847   0.00001   0.00000   0.00004   0.00004   2.25852
    R7        5.79232   0.00089   0.00000   0.05065   0.05065   5.84298
    R8        2.63445   0.00021   0.00000   0.00012   0.00012   2.63457
    R9        1.90793  -0.00038   0.00000  -0.00081  -0.00081   1.90712
   R10        5.79819   0.00043   0.00000   0.03510   0.03510   5.83329
   R11        1.90707  -0.00015   0.00000  -0.00032  -0.00032   1.90676
   R12        5.70325  -0.00019   0.00000   0.02592   0.02592   5.72916
   R13        2.26073  -0.00006   0.00000  -0.00024  -0.00024   2.26049
   R14        2.25695   0.00017   0.00000   0.00066   0.00066   2.25761
    A1        1.53055   0.00053   0.00000   0.00541   0.00540   1.53595
    A2        2.15293  -0.00008   0.00000  -0.00049  -0.00049   2.15244
    A3        2.14524   0.00013   0.00000   0.00070   0.00071   2.14595
    A4        1.78993  -0.00007   0.00000   0.00007   0.00007   1.79000
    A5        1.98174  -0.00005   0.00000  -0.00026  -0.00027   1.98147
    A6        2.07675   0.00003   0.00000   0.00029   0.00029   2.07704
    A7        2.07970  -0.00001   0.00000  -0.00012  -0.00012   2.07958
    A8        1.52322  -0.00050   0.00000  -0.00515  -0.00515   1.51808
    A9        2.12656  -0.00002   0.00000  -0.00014  -0.00014   2.12642
   A10        1.48119   0.00009   0.00000   0.00036   0.00036   1.48156
   A11        1.72426   0.00039   0.00000   0.00331   0.00331   1.72756
   A12        2.14583   0.00014   0.00000   0.00068   0.00068   2.14651
   A13        2.15518  -0.00003   0.00000   0.00014   0.00014   2.15532
   A14        1.84459   0.00003   0.00000   0.00038   0.00038   1.84497
   A15        1.98176  -0.00011   0.00000  -0.00078  -0.00078   1.98098
   A16        1.61571   0.00021   0.00000   0.00090   0.00091   1.61662
   A17        1.67253   0.00037   0.00000   0.00255   0.00255   1.67508
   A18        1.52450   0.00010   0.00000   0.00102   0.00102   1.52553
   A19        1.55074  -0.00052   0.00000  -0.00210  -0.00210   1.54864
   A20        2.07671  -0.00006   0.00000  -0.00017  -0.00017   2.07654
   A21        2.08073   0.00009   0.00000   0.00010   0.00010   2.08083
   A22        1.54668   0.00006   0.00000  -0.00072  -0.00071   1.54597
   A23        1.81806  -0.00034   0.00000  -0.00244  -0.00245   1.81561
   A24        2.12512  -0.00003   0.00000   0.00002   0.00002   2.12513
   A25        1.90762   0.00031   0.00000   0.00486   0.00486   1.91248
   A26        1.62830   0.00048   0.00000   0.00103   0.00103   1.62933
    D1       -1.30939   0.00019   0.00000   0.00305   0.00305  -1.30634
    D2        1.85228   0.00019   0.00000   0.00145   0.00144   1.85373
    D3        0.13225   0.00002   0.00000   0.00053   0.00052   0.13278
    D4       -3.11632  -0.00007   0.00000  -0.00058  -0.00058  -3.11690
    D5        0.04535  -0.00007   0.00000  -0.00219  -0.00219   0.04316
    D6       -1.67468  -0.00024   0.00000  -0.00311  -0.00311  -1.67779
    D7       -0.06724  -0.00007   0.00000  -0.00133  -0.00133  -0.06857
    D8        3.09443  -0.00008   0.00000  -0.00294  -0.00294   3.09150
    D9        1.37441  -0.00025   0.00000  -0.00386  -0.00386   1.37055
   D10        1.73649  -0.00001   0.00000  -0.00442  -0.00443   1.73206
   D11       -2.47192  -0.00006   0.00000  -0.00449  -0.00449  -2.47641
   D12       -0.34492  -0.00007   0.00000  -0.00438  -0.00439  -0.34931
   D13       -2.38782   0.00002   0.00000  -0.00362  -0.00362  -2.39144
   D14       -0.31304  -0.00002   0.00000  -0.00368  -0.00368  -0.31672
   D15        1.81396  -0.00003   0.00000  -0.00358  -0.00358   1.81038
   D16       -1.14651  -0.00021   0.00000  -0.00065  -0.00065  -1.14716
   D17        1.91082  -0.00021   0.00000  -0.00135  -0.00135   1.90947
   D18       -0.35043  -0.00008   0.00000  -0.00395  -0.00395  -0.35438
   D19        1.73409   0.00001   0.00000  -0.00302  -0.00302   1.73107
   D20       -2.42897  -0.00000   0.00000  -0.00316  -0.00315  -2.43212
   D21       -1.58696   0.00023   0.00000   0.00160   0.00160  -1.58536
   D22        3.12206  -0.00008   0.00000  -0.00097  -0.00097   3.12109
   D23        0.01783  -0.00015   0.00000   0.00063   0.00063   0.01847
   D24        1.58785   0.00020   0.00000   0.00022   0.00021   1.58807
   D25        0.01368  -0.00012   0.00000  -0.00236  -0.00236   0.01133
   D26       -3.09054  -0.00019   0.00000  -0.00075  -0.00075  -3.09129
   D27        1.62761  -0.00002   0.00000  -0.00553  -0.00553   1.62208
   D28       -2.64252  -0.00006   0.00000  -0.00598  -0.00598  -2.64850
   D29        0.15436   0.00001   0.00000   0.00057   0.00056   0.15493
   D30       -1.52179  -0.00013   0.00000  -0.00119  -0.00119  -1.52298
   D31       -0.03992  -0.00004   0.00000   0.00295   0.00294  -0.03698
   D32        1.65825  -0.00020   0.00000   0.00047   0.00046   1.65872
         Item               Value     Threshold  Converged?
 Maximum Force            0.001198     0.000450     NO 
 RMS     Force            0.000274     0.000300     YES
 Maximum Displacement     0.026906     0.001800     NO 
 RMS     Displacement     0.009862     0.001200     NO 
 Predicted change in Energy=-5.254591D-05
 GradGradGradGradGradGradGradGradGradGradGradGradGradGradGradGradGradGrad

                          Input orientation:                          
 ---------------------------------------------------------------------
 Center     Atomic      Atomic             Coordinates (Angstroms)
 Number     Number       Type             X           Y           Z
 ---------------------------------------------------------------------
      1          7           0        1.499111   -0.708802   -0.258706
      2          5           0        1.833217    0.639582   -0.355780
      3          7           0       -1.975225    0.042045   -0.230976
      4          5           0       -1.247732    0.171469    0.951256
      5          1           0       -2.099606    0.800194   -0.885368
      6          1           0        1.331858    1.300485   -1.216537
      7          1           0        2.626688    1.099394    0.410623
      8          1           0        1.866831   -1.321249    0.454293
      9          1           0        0.806053   -1.146535   -0.847716
     10          1           0       -2.449300   -0.806114   -0.502976
     11          1           0       -1.163795   -0.768801    1.685927
     12          1           0       -0.759490    1.227411    1.223019
 ---------------------------------------------------------------------
                    Distance matrix (angstroms):
                    1          2          3          4          5
     1  N    0.000000
     2  B    1.392548   0.000000
     3  N    3.554652   3.857053   0.000000
     4  B    3.127943   3.379307   1.394156   0.000000
     5  H    3.952282   3.971568   1.009203   2.119947   0.000000
     6  H    2.232185   1.195432   3.673119   3.553630   3.483520
     7  H    2.233608   1.195156   4.765211   4.020504   4.909885
     8  H    1.009295   2.121840   4.133951   3.489366   4.693381
     9  H    1.009392   2.118320   3.086842   3.031743   3.497717
    10  H    3.957156   4.522350   1.009012   2.124671   1.687819
    11  H    3.297918   3.890269   2.233922   1.196200   3.154211
    12  H    3.323508   3.091970   2.235443   1.194675   2.534506
                    6          7          8          9         10
     6  H    0.000000
     7  H    2.089180   0.000000
     8  H    3.154577   2.537480   0.000000
     9  H    2.529903   3.153146   1.688491   0.000000
    10  H    4.386808   5.498297   4.450922   3.291208   0.000000
    11  H    4.351382   4.414104   3.317652   3.231460   2.538742
    12  H    3.214111   3.484620   3.739541   3.517739   3.157489
                   11         12
    11  H    0.000000
    12  H    2.088686   0.000000
 Stoichiometry    B2H8N2
 Framework group  C1[X(B2H8N2)]
 Deg. of freedom    30
 Full point group                 C1      NOp   1
 Largest Abelian subgroup         C1      NOp   1
 Largest concise Abelian subgroup C1      NOp   1
                         Standard orientation:                         
 ---------------------------------------------------------------------
 Center     Atomic      Atomic             Coordinates (Angstroms)
 Number     Number       Type             X           Y           Z
 ---------------------------------------------------------------------
      1          7           0        1.540828   -0.659503   -0.136378
      2          5           0        1.853828    0.696737   -0.093532
      3          7           0       -1.930928    0.039989   -0.441614
      4          5           0       -1.341788    0.087407    0.821056
      5          1           0       -1.998792    0.844726   -1.046827
      6          1           0        1.436378    1.415399   -0.952786
      7          1           0        2.547268    1.106570    0.789403
      8          1           0        1.840779   -1.320235    0.565148
      9          1           0        0.927038   -1.059688   -0.830630
     10          1           0       -2.353176   -0.790916   -0.828147
     11          1           0       -1.318981   -0.905644    1.487559
     12          1           0       -0.910017    1.125663    1.224597
 ---------------------------------------------------------------------
 Rotational constants (GHZ):          12.7396195           2.7067690           2.6667944
 Standard basis: 6-31G(d,p) (6D, 7F)
 There are   100 symmetry adapted cartesian basis functions of A   symmetry.
 There are   100 symmetry adapted basis functions of A   symmetry.
   100 basis functions,   168 primitive gaussians,   100 cartesian basis functions
    16 alpha electrons       16 beta electrons
       nuclear repulsion energy       102.3222180040 Hartrees.
 NAtoms=   12 NActive=   12 NUniq=   12 SFac= 1.00D+00 NAtFMM=   60 NAOKFM=F Big=F
 Integral buffers will be    131072 words long.
 Raffenetti 2 integral format.
 Two-electron integral symmetry is turned on.
 One-electron integrals computed using PRISM.
 NBasis=   100 RedAO= T EigKep=  1.05D-02  NBF=   100
 NBsUse=   100 1.00D-06 EigRej= -1.00D+00 NBFU=   100
 Initial guess from the checkpoint file:  "/scratch/1311825/Gau-2496.chk"
 B after Tr=    -0.000000   -0.000000   -0.000000
         Rot=    0.999957   -0.009273    0.000597   -0.000039 Ang=  -1.06 deg.
 Initial guess <Sx>= 0.0000 <Sy>= 0.0000 <Sz>= 0.0000 <S**2>= 0.0000 S= 0.0000
 ExpMin= 1.27D-01 ExpMax= 4.17D+03 ExpMxC= 6.27D+02 IAcc=2 IRadAn=         4 AccDes= 0.00D+00
 Harris functional with IExCor=  402 and IRadAn=       4 diagonalized for initial guess.
 HarFok:  IExCor=  402 AccDes= 0.00D+00 IRadAn=         4 IDoV= 1 UseB2=F ITyADJ=14
 ICtDFT=  3500011 ScaDFX=  1.000000  1.000000  1.000000  1.000000
 FoFCou: FMM=F IPFlag=           0 FMFlag=      100000 FMFlg1=           0
         NFxFlg=           0 DoJE=T BraDBF=F KetDBF=T FulRan=T
         wScrn=  0.000000 ICntrl=       500 IOpCl=  0 I1Cent=   200000004 NGrid=           0
         NMat0=    1 NMatS0=      1 NMatT0=    0 NMatD0=    1 NMtDS0=    0 NMtDT0=    0
 Petite list used in FoFCou.
 Keep R1 and R2 ints in memory in canonical form, NReq=29209894.
 Requested convergence on RMS density matrix=1.00D-08 within1024 cycles.
 Requested convergence on MAX density matrix=1.00D-06.
 Requested convergence on             energy=1.00D-06.
 No special actions if energy rises.
 Integral accuracy reduced to 1.0D-05 until final iterations.
 Initial convergence to 1.0D-05 achieved.  Increase integral accuracy.
 SCF Done:  E(UB3LYP) =  -164.096975587     A.U. after    8 cycles
            NFock=  8  Conv=0.63D-08     -V/T= 2.0100
 <Sx>= 0.0000 <Sy>= 0.0000 <Sz>= 0.0000 <S**2>= 0.0000 S= 0.0000
 <L.S>= 0.000000000000E+00
 Annihilation of the first spin contaminant:
 S**2 before annihilation     0.0000,   after    -0.0000
 Calling FoFJK, ICntrl=      2127 FMM=F ISym2X=0 I1Cent= 0 IOpClX= 1 NMat=1 NMatS=1 NMatT=0.
 ***** Axes restored to original set *****
 -------------------------------------------------------------------
 Center     Atomic                   Forces (Hartrees/Bohr)
 Number     Number              X              Y              Z
 -------------------------------------------------------------------
      1        7           0.000338384    0.000097459   -0.000111643
      2        5           0.000967091   -0.000097015   -0.000377742
      3        7          -0.000379389    0.000078396    0.000141351
      4        5          -0.001180450    0.000047795    0.000418253
      5        1          -0.000016933    0.000001285   -0.000037680
      6        1           0.000001399    0.000018279   -0.000002108
      7        1           0.000208646   -0.000071383   -0.000155981
      8        1           0.000030521   -0.000018975   -0.000011196
      9        1           0.000207043    0.000234622    0.000272208
     10        1          -0.000056239    0.000004155   -0.000017479
     11        1           0.000014821   -0.000042711   -0.000056549
     12        1          -0.000134895   -0.000251908   -0.000061436
 -------------------------------------------------------------------
 Cartesian Forces:  Max     0.001180450 RMS     0.000303094

 GradGradGradGradGradGradGradGradGradGradGradGradGradGradGradGradGradGrad
 Berny optimization.
 Using GEDIIS/GDIIS optimizer.
 FormGI is forming the generalized inverse of G from B-inverse, IUseBI=4.
 Internal  Forces:  Max     0.000833778 RMS     0.000206096
 Search for a local minimum.
 Step number   2 out of a maximum of   82
 All quantities printed in internal units (Hartrees-Bohrs-Radians)
 Mixed Optimization -- En-DIIS/RFO-DIIS
 Swapping is turned off.
 Update second derivatives using D2CorX and points    1    2
 DE= -9.72D-05 DEPred=-5.25D-05 R= 1.85D+00
 TightC=F SS=  1.41D+00  RLast= 8.05D-02 DXNew= 5.0454D-01 2.4164D-01
 Trust test= 1.85D+00 RLast= 8.05D-02 DXMaxT set to 3.00D-01
 ITU=  1  0
     Eigenvalues ---    0.00156   0.00499   0.02946   0.03207   0.03718
     Eigenvalues ---    0.04030   0.04252   0.04885   0.05423   0.05442
     Eigenvalues ---    0.06152   0.07467   0.07913   0.08947   0.10567
     Eigenvalues ---    0.10708   0.12063   0.12189   0.12887   0.15152
     Eigenvalues ---    0.24772   0.24955   0.25017   0.25024   0.44327
     Eigenvalues ---    0.45272   0.46011   0.46069   0.46105   0.56889
 En-DIIS/RFO-DIIS/Sim-DIIS IScMMF=       -3 using points:     2    1
 RFO step:  Lambda=-5.79536420D-04.
 Use linear search instead of GDIIS.
 RFO step:  Lambda=-3.82405204D-05 EMin= 1.56344631D-03
 Quartic linear search produced a step of  2.00000.
 Iteration  1 RMS(Cart)=  0.02748590 RMS(Int)=  0.00009893
 Iteration  2 RMS(Cart)=  0.00014401 RMS(Int)=  0.00003367
 Iteration  3 RMS(Cart)=  0.00000001 RMS(Int)=  0.00003367
 Variable       Old X    -DE/DX   Delta X   Delta X   Delta X     New X
                                 (Linear)    (Quad)   (Total)
    R1        2.63153  -0.00005  -0.00038  -0.00035  -0.00070   2.63083
    R2        5.91096   0.00056   0.08056   0.02730   0.10785   6.01881
    R3        1.90729   0.00001  -0.00046   0.00038  -0.00007   1.90722
    R4        1.90747  -0.00008   0.00560  -0.00385   0.00177   1.90924
    R5        2.25904   0.00001   0.00036  -0.00010   0.00026   2.25930
    R6        2.25852   0.00001   0.00009   0.00007   0.00016   2.25868
    R7        5.84298   0.00083   0.10131   0.04005   0.14135   5.98433
    R8        2.63457  -0.00001   0.00024  -0.00082  -0.00060   2.63398
    R9        1.90712   0.00003  -0.00163   0.00120  -0.00043   1.90669
   R10        5.83329   0.00043   0.07020   0.01969   0.08988   5.92317
   R11        1.90676   0.00003  -0.00064   0.00058  -0.00006   1.90670
   R12        5.72916  -0.00021   0.05183   0.01429   0.06614   5.79531
   R13        2.26049  -0.00000  -0.00047   0.00030  -0.00017   2.26032
   R14        2.25761  -0.00002   0.00131  -0.00074   0.00055   2.25816
    A1        1.53595   0.00046   0.01080   0.00754   0.01834   1.55429
    A2        2.15244  -0.00005  -0.00099   0.00069  -0.00035   2.15209
    A3        2.14595   0.00010   0.00141  -0.00010   0.00140   2.14734
    A4        1.79000  -0.00007   0.00014  -0.00099  -0.00086   1.78913
    A5        1.98147  -0.00005  -0.00053  -0.00044  -0.00101   1.98047
    A6        2.07704   0.00001   0.00057   0.00032   0.00087   2.07791
    A7        2.07958  -0.00001  -0.00024  -0.00046  -0.00065   2.07893
    A8        1.51808  -0.00045  -0.01029  -0.00714  -0.01740   1.50068
    A9        2.12642  -0.00000  -0.00028   0.00013  -0.00018   2.12624
   A10        1.48156   0.00009   0.00073   0.00028   0.00104   1.48259
   A11        1.72756   0.00039   0.00661   0.00727   0.01384   1.74141
   A12        2.14651   0.00009   0.00136   0.00016   0.00151   2.14802
   A13        2.15532  -0.00006   0.00027  -0.00067  -0.00039   2.15493
   A14        1.84497  -0.00002   0.00076  -0.00050   0.00025   1.84523
   A15        1.98098  -0.00003  -0.00157   0.00051  -0.00106   1.97992
   A16        1.61662   0.00023   0.00182   0.00151   0.00339   1.62001
   A17        1.67508   0.00020   0.00510   0.00102   0.00610   1.68118
   A18        1.52553   0.00006   0.00205  -0.00148   0.00055   1.52608
   A19        1.54864  -0.00042  -0.00419  -0.00303  -0.00720   1.54145
   A20        2.07654  -0.00004  -0.00034  -0.00020  -0.00055   2.07599
   A21        2.08083   0.00005   0.00020  -0.00015   0.00007   2.08091
   A22        1.54597   0.00002  -0.00142  -0.00149  -0.00284   1.54313
   A23        1.81561  -0.00042  -0.00490  -0.00481  -0.00976   1.80585
   A24        2.12513  -0.00000   0.00003   0.00050   0.00051   2.12564
   A25        1.91248   0.00040   0.00972   0.00662   0.01642   1.92890
   A26        1.62933   0.00041   0.00206   0.00288   0.00489   1.63422
    D1       -1.30634   0.00016   0.00611   0.00301   0.00913  -1.29721
    D2        1.85373   0.00019   0.00289   0.00359   0.00651   1.86023
    D3        0.13278  -0.00000   0.00105  -0.00076   0.00031   0.13309
    D4       -3.11690  -0.00006  -0.00116  -0.00093  -0.00208  -3.11899
    D5        0.04316  -0.00002  -0.00437  -0.00034  -0.00471   0.03845
    D6       -1.67779  -0.00022  -0.00621  -0.00469  -0.01090  -1.68869
    D7       -0.06857  -0.00002  -0.00266   0.00106  -0.00159  -0.07015
    D8        3.09150   0.00001  -0.00587   0.00165  -0.00421   3.08729
    D9        1.37055  -0.00018  -0.00772  -0.00270  -0.01040   1.36015
   D10        1.73206  -0.00003  -0.00885  -0.00089  -0.00981   1.72225
   D11       -2.47641  -0.00007  -0.00898  -0.00122  -0.01026  -2.48667
   D12       -0.34931  -0.00004  -0.00878  -0.00044  -0.00929  -0.35859
   D13       -2.39144   0.00002  -0.00723   0.00156  -0.00568  -2.39711
   D14       -0.31672  -0.00001  -0.00737   0.00122  -0.00613  -0.32285
   D15        1.81038   0.00001  -0.00716   0.00200  -0.00516   1.80522
   D16       -1.14716  -0.00022  -0.00130  -0.00580  -0.00708  -1.15423
   D17        1.90947  -0.00019  -0.00270  -0.00393  -0.00661   1.90286
   D18       -0.35438  -0.00005  -0.00790   0.00010  -0.00785  -0.36223
   D19        1.73107   0.00001  -0.00605   0.00134  -0.00471   1.72636
   D20       -2.43212   0.00002  -0.00631   0.00145  -0.00479  -2.43691
   D21       -1.58536   0.00018   0.00320   0.00029   0.00348  -1.58188
   D22        3.12109   0.00000  -0.00194   0.00145  -0.00047   3.12061
   D23        0.01847  -0.00018   0.00127  -0.00264  -0.00137   0.01710
   D24        1.58807   0.00014   0.00043   0.00017   0.00057   1.58864
   D25        0.01133  -0.00003  -0.00471   0.00133  -0.00338   0.00794
   D26       -3.09129  -0.00022  -0.00150  -0.00276  -0.00428  -3.09557
   D27        1.62208  -0.00006  -0.01105  -0.00061  -0.01165   1.61043
   D28       -2.64850  -0.00003  -0.01196   0.00034  -0.01159  -2.66008
   D29        0.15493  -0.00000   0.00113  -0.00083   0.00027   0.15520
   D30       -1.52298  -0.00000  -0.00238  -0.00030  -0.00270  -1.52567
   D31       -0.03698   0.00006   0.00587   0.00032   0.00608  -0.03089
   D32        1.65872  -0.00019   0.00093  -0.00449  -0.00360   1.65512
         Item               Value     Threshold  Converged?
 Maximum Force            0.000834     0.000450     NO 
 RMS     Force            0.000206     0.000300     YES
 Maximum Displacement     0.084364     0.001800     NO 
 RMS     Displacement     0.027575     0.001200     NO 
 Predicted change in Energy=-2.107329D-04
 GradGradGradGradGradGradGradGradGradGradGradGradGradGradGradGradGradGrad

                          Input orientation:                          
 ---------------------------------------------------------------------
 Center     Atomic      Atomic             Coordinates (Angstroms)
 Number     Number       Type             X           Y           Z
 ---------------------------------------------------------------------
      1          7           0        1.527749   -0.705175   -0.259795
      2          5           0        1.872032    0.639380   -0.368384
      3          7           0       -2.008221    0.043735   -0.224802
      4          5           0       -1.282600    0.167298    0.958835
      5          1           0       -2.133614    0.804405   -0.875718
      6          1           0        1.371889    1.298972   -1.231045
      7          1           0        2.671331    1.098307    0.392609
      8          1           0        1.895852   -1.315535    0.454737
      9          1           0        0.826710   -1.142873   -0.840938
     10          1           0       -2.478595   -0.804388   -0.503147
     11          1           0       -1.199079   -0.777228    1.687923
     12          1           0       -0.794842    1.222182    1.236786
 ---------------------------------------------------------------------
                    Distance matrix (angstroms):
                    1          2          3          4          5
     1  N    0.000000
     2  B    1.392175   0.000000
     3  N    3.614578   3.928329   0.000000
     4  B    3.185017   3.454862   1.393840   0.000000
     5  H    4.007964   4.041017   1.008977   2.120310   0.000000
     6  H    2.232537   1.195570   3.743433   3.622509   3.558006
     7  H    2.232927   1.195242   4.836479   4.101337   4.978206
     8  H    1.009255   2.121270   4.189413   3.543370   4.743507
     9  H    1.010327   2.119536   3.134406   3.066745   3.543533
    10  H    4.014954   4.585912   1.008981   2.124140   1.687020
    11  H    3.351774   3.958143   2.233206   1.196108   3.153915
    12  H    3.368811   3.166772   2.235456   1.194966   2.535650
                    6          7          8          9         10
     6  H    0.000000
     7  H    2.089274   0.000000
     8  H    3.154686   2.536112   0.000000
     9  H    2.532195   3.153911   1.688683   0.000000
    10  H    4.447492   5.562767   4.507173   3.339718   0.000000
    11  H    4.409179   4.491720   3.374778   3.260776   2.537458
    12  H    3.284936   3.569641   3.780403   3.541166   3.157432
                   11         12
    11  H    0.000000
    12  H    2.089156   0.000000
 Stoichiometry    B2H8N2
 Framework group  C1[X(B2H8N2)]
 Deg. of freedom    30
 Full point group                 C1      NOp   1
 Largest Abelian subgroup         C1      NOp   1
 Largest concise Abelian subgroup C1      NOp   1
                         Standard orientation:                         
 ---------------------------------------------------------------------
 Center     Atomic      Atomic             Coordinates (Angstroms)
 Number     Number       Type             X           Y           Z
 ---------------------------------------------------------------------
      1          7           0        1.569107   -0.650115   -0.165358
      2          5           0        1.895563    0.698917   -0.057236
      3          7           0       -1.962552    0.067958   -0.442737
      4          5           0       -1.379377    0.038457    0.822896
      5          1           0       -2.028642    0.907081   -0.999099
      6          1           0        1.483495    1.463672   -0.878661
      7          1           0        2.593165    1.057971    0.844449
      8          1           0        1.865898   -1.347277    0.501332
      9          1           0        0.948151   -1.011284   -0.875803
     10          1           0       -2.380418   -0.738680   -0.881788
     11          1           0       -1.359978   -0.993453    1.427429
     12          1           0       -0.948488    1.050196    1.290510
 ---------------------------------------------------------------------
 Rotational constants (GHZ):          12.7612354           2.6114380           2.5769219
 Standard basis: 6-31G(d,p) (6D, 7F)
 There are   100 symmetry adapted cartesian basis functions of A   symmetry.
 There are   100 symmetry adapted basis functions of A   symmetry.
   100 basis functions,   168 primitive gaussians,   100 cartesian basis functions
    16 alpha electrons       16 beta electrons
       nuclear repulsion energy       101.6743331185 Hartrees.
 NAtoms=   12 NActive=   12 NUniq=   12 SFac= 1.00D+00 NAtFMM=   60 NAOKFM=F Big=F
 Integral buffers will be    131072 words long.
 Raffenetti 2 integral format.
 Two-electron integral symmetry is turned on.
 One-electron integrals computed using PRISM.
 NBasis=   100 RedAO= T EigKep=  1.07D-02  NBF=   100
 NBsUse=   100 1.00D-06 EigRej= -1.00D+00 NBFU=   100
 Initial guess from the checkpoint file:  "/scratch/1311825/Gau-2496.chk"
 B after Tr=    -0.000000    0.000000    0.000000
         Rot=    0.999620   -0.027524    0.001536    0.000417 Ang=  -3.16 deg.
 Initial guess <Sx>= 0.0000 <Sy>= 0.0000 <Sz>= 0.0000 <S**2>= 0.0000 S= 0.0000
 ExpMin= 1.27D-01 ExpMax= 4.17D+03 ExpMxC= 6.27D+02 IAcc=2 IRadAn=         4 AccDes= 0.00D+00
 Harris functional with IExCor=  402 and IRadAn=       4 diagonalized for initial guess.
 HarFok:  IExCor=  402 AccDes= 0.00D+00 IRadAn=         4 IDoV= 1 UseB2=F ITyADJ=14
 ICtDFT=  3500011 ScaDFX=  1.000000  1.000000  1.000000  1.000000
 FoFCou: FMM=F IPFlag=           0 FMFlag=      100000 FMFlg1=           0
         NFxFlg=           0 DoJE=T BraDBF=F KetDBF=T FulRan=T
         wScrn=  0.000000 ICntrl=       500 IOpCl=  0 I1Cent=   200000004 NGrid=           0
         NMat0=    1 NMatS0=      1 NMatT0=    0 NMatD0=    1 NMtDS0=    0 NMtDT0=    0
 Petite list used in FoFCou.
 Keep R1 and R2 ints in memory in canonical form, NReq=29209894.
 Requested convergence on RMS density matrix=1.00D-08 within1024 cycles.
 Requested convergence on MAX density matrix=1.00D-06.
 Requested convergence on             energy=1.00D-06.
 No special actions if energy rises.
 Integral accuracy reduced to 1.0D-05 until final iterations.
 Initial convergence to 1.0D-05 achieved.  Increase integral accuracy.
 SCF Done:  E(UB3LYP) =  -164.097200740     A.U. after    9 cycles
            NFock=  9  Conv=0.60D-08     -V/T= 2.0101
 <Sx>= 0.0000 <Sy>= 0.0000 <Sz>= 0.0000 <S**2>= 0.0000 S= 0.0000
 <L.S>= 0.000000000000E+00
 Annihilation of the first spin contaminant:
 S**2 before annihilation     0.0000,   after     0.0000
 Calling FoFJK, ICntrl=      2127 FMM=F ISym2X=0 I1Cent= 0 IOpClX= 1 NMat=1 NMatS=1 NMatT=0.
 ***** Axes restored to original set *****
 -------------------------------------------------------------------
 Center     Atomic                   Forces (Hartrees/Bohr)
 Number     Number              X              Y              Z
 -------------------------------------------------------------------
      1        7          -0.000517075   -0.000436384   -0.000529108
      2        5           0.000771606    0.000132773   -0.000258934
      3        7          -0.000113270   -0.000193203    0.000110530
      4        5          -0.001115426    0.000357570    0.000529830
      5        1           0.000057424    0.000244218   -0.000129286
      6        1          -0.000052615   -0.000035378    0.000045198
      7        1           0.000290588   -0.000093142   -0.000243736
      8        1          -0.000013740   -0.000005418    0.000095108
      9        1           0.000812607    0.000624921    0.000602263
     10        1          -0.000109743   -0.000077059    0.000023511
     11        1           0.000138100   -0.000129095   -0.000097136
     12        1          -0.000148457   -0.000389803   -0.000148240
 -------------------------------------------------------------------
 Cartesian Forces:  Max     0.001115426 RMS     0.000374673

 GradGradGradGradGradGradGradGradGradGradGradGradGradGradGradGradGradGrad
 Berny optimization.
 Using GEDIIS/GDIIS optimizer.
 FormGI is forming the generalized inverse of G from B-inverse, IUseBI=4.
 Internal  Forces:  Max     0.000906269 RMS     0.000206506
 Search for a local minimum.
 Step number   3 out of a maximum of   82
 All quantities printed in internal units (Hartrees-Bohrs-Radians)
 Mixed Optimization -- En-DIIS/RFO-DIIS
 Swapping is turned off.
 Update second derivatives using D2CorX and points    1    2    3
 DE= -2.25D-04 DEPred=-2.11D-04 R= 1.07D+00
 TightC=F SS=  1.41D+00  RLast= 2.16D-01 DXNew= 5.0454D-01 6.4876D-01
 Trust test= 1.07D+00 RLast= 2.16D-01 DXMaxT set to 5.05D-01
 ITU=  1  1  0
     Eigenvalues ---    0.00128   0.00478   0.02939   0.03172   0.03704
     Eigenvalues ---    0.03950   0.04242   0.04823   0.05410   0.05482
     Eigenvalues ---    0.06157   0.07446   0.07655   0.08954   0.10535
     Eigenvalues ---    0.10672   0.11999   0.12082   0.12461   0.15055
     Eigenvalues ---    0.24827   0.24969   0.25024   0.25031   0.44442
     Eigenvalues ---    0.45344   0.46015   0.46069   0.46106   0.60852
 En-DIIS/RFO-DIIS/Sim-DIIS IScMMF=       -3 using points:     3    2    1
 RFO step:  Lambda=-4.75514783D-04.
 Use linear search instead of GDIIS.
 RFO step:  Lambda=-3.50127573D-05 EMin= 1.27762283D-03
 Quartic linear search produced a step of  2.00000.
 Iteration  1 RMS(Cart)=  0.04861395 RMS(Int)=  0.01207813
 Iteration  2 RMS(Cart)=  0.01260612 RMS(Int)=  0.00020579
 Iteration  3 RMS(Cart)=  0.00004237 RMS(Int)=  0.00020292
 Iteration  4 RMS(Cart)=  0.00000000 RMS(Int)=  0.00020292
 Variable       Old X    -DE/DX   Delta X   Delta X   Delta X     New X
                                 (Linear)    (Quad)   (Total)
    R1        2.63083   0.00009  -0.00141   0.00050  -0.00076   2.63007
    R2        6.01881   0.00036   0.21571   0.01296   0.22850   6.24731
    R3        1.90722   0.00007  -0.00015   0.00015   0.00000   1.90722
    R4        1.90924  -0.00091   0.00353  -0.00323   0.00037   1.90961
    R5        2.25930  -0.00003   0.00052  -0.00030   0.00022   2.25952
    R6        2.25868   0.00000   0.00033  -0.00002   0.00031   2.25899
    R7        5.98433   0.00069   0.28271   0.02311   0.30576   6.29009
    R8        2.63398  -0.00004  -0.00119   0.00004  -0.00122   2.63276
    R9        1.90669   0.00026  -0.00085   0.00084  -0.00002   1.90667
   R10        5.92317   0.00029   0.17976   0.00444   0.18418   6.10735
   R11        1.90670   0.00011  -0.00012   0.00029   0.00018   1.90687
   R12        5.79531  -0.00017   0.13229   0.00642   0.13894   5.93425
   R13        2.26032   0.00005  -0.00035   0.00042   0.00007   2.26039
   R14        2.25816  -0.00022   0.00110  -0.00136  -0.00036   2.25780
    A1        1.55429   0.00035   0.03667   0.00504   0.04168   1.59597
    A2        2.15209  -0.00004  -0.00070   0.00037  -0.00057   2.15151
    A3        2.14734   0.00003   0.00279  -0.00158   0.00170   2.14905
    A4        1.78913  -0.00007  -0.00173  -0.00139  -0.00322   1.78591
    A5        1.98047   0.00001  -0.00201   0.00135  -0.00091   1.97956
    A6        2.07791  -0.00006   0.00174  -0.00123   0.00033   2.07823
    A7        2.07893   0.00004  -0.00130   0.00079  -0.00019   2.07873
    A8        1.50068  -0.00039  -0.03479  -0.00574  -0.04034   1.46034
    A9        2.12624   0.00002  -0.00035   0.00042  -0.00009   2.12615
   A10        1.48259   0.00006   0.00207  -0.00012   0.00207   1.48466
   A11        1.74141   0.00039   0.02768   0.00685   0.03432   1.77573
   A12        2.14802  -0.00001   0.00302  -0.00149   0.00148   2.14950
   A13        2.15493  -0.00004  -0.00078   0.00019  -0.00054   2.15439
   A14        1.84523  -0.00007   0.00051  -0.00095  -0.00056   1.84467
   A15        1.97992   0.00005  -0.00211   0.00126  -0.00086   1.97906
   A16        1.62001   0.00021   0.00679   0.00107   0.00813   1.62814
   A17        1.68118   0.00002   0.01220  -0.00211   0.00998   1.69116
   A18        1.52608  -0.00000   0.00110  -0.00162  -0.00059   1.52549
   A19        1.54145  -0.00027  -0.01439  -0.00216  -0.01643   1.52501
   A20        2.07599  -0.00002  -0.00110   0.00017  -0.00090   2.07509
   A21        2.08091  -0.00000   0.00015  -0.00042  -0.00016   2.08074
   A22        1.54313  -0.00002  -0.00568  -0.00266  -0.00794   1.53519
   A23        1.80585  -0.00041  -0.01952  -0.00263  -0.02239   1.78346
   A24        2.12564   0.00003   0.00102   0.00048   0.00132   2.12696
   A25        1.92890   0.00040   0.03284   0.00304   0.03633   1.96523
   A26        1.63422   0.00032   0.00978   0.00152   0.01094   1.64516
    D1       -1.29721   0.00013   0.01826   0.00462   0.02304  -1.27417
    D2        1.86023   0.00021   0.01301   0.00607   0.01926   1.87949
    D3        0.13309  -0.00002   0.00063   0.00138   0.00214   0.13523
    D4       -3.11899  -0.00001  -0.00417   0.00284  -0.00136  -3.12035
    D5        0.03845   0.00007  -0.00942   0.00429  -0.00513   0.03332
    D6       -1.68869  -0.00016  -0.02180  -0.00039  -0.02226  -1.71094
    D7       -0.07015   0.00006  -0.00317   0.00486   0.00167  -0.06848
    D8        3.08729   0.00014  -0.00842   0.00631  -0.00211   3.08518
    D9        1.36015  -0.00009  -0.02080   0.00163  -0.01923   1.34092
   D10        1.72225  -0.00004  -0.01962  -0.00614  -0.02619   1.69607
   D11       -2.48667  -0.00006  -0.02052  -0.00616  -0.02703  -2.51370
   D12       -0.35859  -0.00001  -0.01857  -0.00542  -0.02440  -0.38300
   D13       -2.39711  -0.00000  -0.01136  -0.00465  -0.01605  -2.41317
   D14       -0.32285  -0.00002  -0.01226  -0.00467  -0.01689  -0.33975
   D15        1.80522   0.00003  -0.01031  -0.00393  -0.01427   1.79096
   D16       -1.15423  -0.00022  -0.01416  -0.00331  -0.01745  -1.17169
   D17        1.90286  -0.00016  -0.01322  -0.00150  -0.01470   1.88817
   D18       -0.36223  -0.00001  -0.01570  -0.00503  -0.02104  -0.38327
   D19        1.72636  -0.00002  -0.00942  -0.00545  -0.01487   1.71148
   D20       -2.43691   0.00001  -0.00958  -0.00502  -0.01413  -2.45104
   D21       -1.58188   0.00011   0.00696   0.00076   0.00761  -1.57426
   D22        3.12061   0.00010  -0.00094   0.00377   0.00287   3.12348
   D23        0.01710  -0.00019  -0.00274  -0.00297  -0.00574   0.01136
   D24        1.58864   0.00009   0.00114   0.00238   0.00336   1.59199
   D25        0.00794   0.00008  -0.00677   0.00539  -0.00138   0.00656
   D26       -3.09557  -0.00021  -0.00856  -0.00135  -0.01000  -3.10557
   D27        1.61043  -0.00011  -0.02331  -0.00580  -0.02905   1.58138
   D28       -2.66008   0.00000  -0.02318  -0.00429  -0.02732  -2.68741
   D29        0.15520  -0.00000   0.00054   0.00172   0.00209   0.15729
   D30       -1.52567   0.00012  -0.00539   0.00536  -0.00017  -1.52584
   D31       -0.03089   0.00010   0.01217   0.00323   0.01475  -0.01615
   D32        1.65512  -0.00018  -0.00719  -0.00158  -0.00900   1.64612
         Item               Value     Threshold  Converged?
 Maximum Force            0.000906     0.000450     NO 
 RMS     Force            0.000207     0.000300     YES
 Maximum Displacement     0.189158     0.001800     NO 
 RMS     Displacement     0.059189     0.001200     NO 
 Predicted change in Energy=-2.867093D-04
 GradGradGradGradGradGradGradGradGradGradGradGradGradGradGradGradGradGrad

                          Input orientation:                          
 ---------------------------------------------------------------------
 Center     Atomic      Atomic             Coordinates (Angstroms)
 Number     Number       Type             X           Y           Z
 ---------------------------------------------------------------------
      1          7           0        1.586617   -0.695995   -0.259269
      2          5           0        1.954689    0.639172   -0.396710
      3          7           0       -2.076880    0.047544   -0.212556
      4          5           0       -1.358838    0.156456    0.976371
      5          1           0       -2.201378    0.816005   -0.854417
      6          1           0        1.454238    1.293594   -1.263280
      7          1           0        2.771429    1.096611    0.346712
      8          1           0        1.955080   -1.300720    0.459857
      9          1           0        0.869624   -1.132021   -0.822261
     10          1           0       -2.540180   -0.799237   -0.506737
     11          1           0       -1.275043   -0.799388    1.690589
     12          1           0       -0.870749    1.207059    1.268761
 ---------------------------------------------------------------------
                    Distance matrix (angstroms):
                    1          2          3          4          5
     1  N    0.000000
     2  B    1.391775   0.000000
     3  N    3.738481   4.078907   0.000000
     4  B    3.305932   3.619092   1.393195   0.000000
     5  H    4.121802   4.184932   1.008969   2.120533   0.000000
     6  H    2.232494   1.195685   3.889146   3.771275   3.709284
     7  H    2.232584   1.195404   4.991935   4.282461   5.123501
     8  H    1.009256   2.120587   4.304260   3.656802   4.846027
     9  H    1.010524   2.120279   3.231872   3.140270   3.636879
    10  H    4.135500   4.720697   1.009073   2.123330   1.686617
    11  H    3.464352   4.105781   2.232084   1.196147   3.153514
    12  H    3.463400   3.328571   2.234620   1.194776   2.536017
                    6          7          8          9         10
     6  H    0.000000
     7  H    2.089466   0.000000
     8  H    3.154443   2.535039   0.000000
     9  H    2.533748   3.154388   1.688343   0.000000
    10  H    4.572492   5.704017   4.625273   3.440504   0.000000
    11  H    4.533750   4.666343   3.492811   3.320340   2.535511
    12  H    3.438646   3.758701   3.863753   3.587836   3.156679
                   11         12
    11  H    0.000000
    12  H    2.089790   0.000000
 Stoichiometry    B2H8N2
 Framework group  C1[X(B2H8N2)]
 Deg. of freedom    30
 Full point group                 C1      NOp   1
 Largest Abelian subgroup         C1      NOp   1
 Largest concise Abelian subgroup C1      NOp   1
                         Standard orientation:                         
 ---------------------------------------------------------------------
 Center     Atomic      Atomic             Coordinates (Angstroms)
 Number     Number       Type             X           Y           Z
 ---------------------------------------------------------------------
      1          7           0        1.626813   -0.619501   -0.241539
      2          5           0        1.985328    0.695904    0.038128
      3          7           0       -2.028036    0.142564   -0.435371
      4          5           0       -1.460640   -0.090777    0.815471
      5          1           0       -2.087659    1.059607   -0.851900
      6          1           0        1.581653    1.571130   -0.669466
      7          1           0        2.698311    0.918309    0.971500
      8          1           0        1.916396   -1.404318    0.323088
      9          1           0        0.990700   -0.872470   -0.984859
     10          1           0       -2.437572   -0.583260   -1.004307
     11          1           0       -1.446860   -1.207173    1.244701
     12          1           0       -1.029855    0.831099    1.441616
 ---------------------------------------------------------------------
 Rotational constants (GHZ):          12.8124965           2.4263283           2.4001485
 Standard basis: 6-31G(d,p) (6D, 7F)
 There are   100 symmetry adapted cartesian basis functions of A   symmetry.
 There are   100 symmetry adapted basis functions of A   symmetry.
   100 basis functions,   168 primitive gaussians,   100 cartesian basis functions
    16 alpha electrons       16 beta electrons
       nuclear repulsion energy       100.3813410905 Hartrees.
 NAtoms=   12 NActive=   12 NUniq=   12 SFac= 1.00D+00 NAtFMM=   60 NAOKFM=F Big=F
 Integral buffers will be    131072 words long.
 Raffenetti 2 integral format.
 Two-electron integral symmetry is turned on.
 One-electron integrals computed using PRISM.
 NBasis=   100 RedAO= T EigKep=  1.10D-02  NBF=   100
 NBsUse=   100 1.00D-06 EigRej= -1.00D+00 NBFU=   100
 Initial guess from the checkpoint file:  "/scratch/1311825/Gau-2496.chk"
 B after Tr=    -0.000000    0.000000   -0.000000
         Rot=    0.997309   -0.073243    0.002945    0.001390 Ang=  -8.41 deg.
 Initial guess <Sx>= 0.0000 <Sy>= 0.0000 <Sz>= 0.0000 <S**2>=-0.0000 S=-0.0000
[...]
 ! R4    R(1,9)                  1.0118         -DE/DX =    0.0                 !
 ! R5    R(2,6)                  1.1999         -DE/DX =    0.0                 !
 ! R6    R(2,7)                  1.1948         -DE/DX =    0.0                 !
 ! R7    R(2,12)                 4.8711         -DE/DX =    0.0                 !
 ! R8    R(3,4)                  1.3944         -DE/DX =    0.0                 !
 ! R9    R(3,5)                  1.0111         -DE/DX =    0.0                 !
 ! R10   R(3,9)                  2.4528         -DE/DX =    0.0                 !
 ! R11   R(3,10)                 1.0101         -DE/DX =    0.0                 !
 ! R12   R(4,9)                  3.0721         -DE/DX =    0.0                 !
 ! R13   R(4,11)                 1.1951         -DE/DX =    0.0                 !
 ! R14   R(4,12)                 1.1946         -DE/DX =    0.0                 !
 ! A1    A(2,1,4)              109.1348         -DE/DX =    0.0                 !
 ! A2    A(2,1,8)              123.0952         -DE/DX =    0.0                 !
 ! A3    A(2,1,9)              122.7258         -DE/DX =    0.0                 !
 ! A4    A(4,1,8)              126.7629         -DE/DX =    0.0                 !
 ! A5    A(8,1,9)              114.1725         -DE/DX =    0.0                 !
 ! A6    A(1,2,6)              118.9505         -DE/DX =    0.0                 !
 ! A7    A(1,2,7)              119.9388         -DE/DX =    0.0                 !
 ! A8    A(1,2,12)              58.4552         -DE/DX =    0.0                 !
 ! A9    A(6,2,7)              121.1105         -DE/DX =    0.0                 !
 ! A10   A(6,2,12)              65.638          -DE/DX =    0.0                 !
 ! A11   A(7,2,12)             157.1149         -DE/DX =    0.0                 !
 ! A12   A(4,3,5)              123.601          -DE/DX =    0.0                 !
 ! A13   A(4,3,10)             123.1568         -DE/DX =    0.0                 !
 ! A14   A(5,3,9)               75.2899         -DE/DX =    0.0                 !
 ! A15   A(5,3,10)             113.0327         -DE/DX =    0.0                 !
 ! A16   A(9,3,10)              95.4814         -DE/DX =    0.0                 !
 ! A17   A(1,4,3)               49.6769         -DE/DX =    0.0                 !
 ! A18   A(1,4,11)             121.6596         -DE/DX =    0.0                 !
 ! A19   A(1,4,12)              95.3957         -DE/DX =    0.0                 !
 ! A20   A(3,4,11)             118.9587         -DE/DX =    0.0                 !
 ! A21   A(3,4,12)             118.9746         -DE/DX =    0.0                 !
 ! A22   A(9,4,11)             116.3966         -DE/DX =    0.0                 !
 ! A23   A(9,4,12)              98.8409         -DE/DX =    0.0                 !
 ! A24   A(11,4,12)            122.0627         -DE/DX =    0.0                 !
 ! A25   A(1,9,3)              141.367          -DE/DX =    0.0                 !
 ! A26   A(2,12,4)              73.4617         -DE/DX =    0.0                 !
 ! D1    D(4,1,2,6)            -10.4008         -DE/DX =    0.0                 !
 ! D2    D(4,1,2,7)            169.7543         -DE/DX =    0.0                 !
 ! D3    D(4,1,2,12)            16.3808         -DE/DX =    0.0                 !
 ! D4    D(8,1,2,6)           -179.6126         -DE/DX =    0.0                 !
 ! D5    D(8,1,2,7)              0.5425         -DE/DX =    0.0                 !
 ! D6    D(8,1,2,12)          -152.8311         -DE/DX =    0.0                 !
 ! D7    D(9,1,2,6)             -0.5921         -DE/DX =    0.0                 !
 ! D8    D(9,1,2,7)            179.563          -DE/DX =    0.0                 !
 ! D9    D(9,1,2,12)            26.1895         -DE/DX =    0.0                 !
 ! D10   D(2,1,4,3)             44.0596         -DE/DX =    0.0                 !
 ! D11   D(2,1,4,11)           146.9287         -DE/DX =    0.0                 !
 ! D12   D(2,1,4,12)           -79.8611         -DE/DX =    0.0                 !
 ! D13   D(8,1,4,3)           -147.2284         -DE/DX =    0.0                 !
 ! D14   D(8,1,4,11)           -44.3593         -DE/DX =    0.0                 !
 ! D15   D(8,1,4,12)            88.8509         -DE/DX =    0.0                 !
 ! D16   D(2,1,9,3)              6.8379         -DE/DX =    0.0                 !
 ! D17   D(8,1,9,3)           -174.0615         -DE/DX =    0.0                 !
 ! D18   D(1,2,12,4)           -69.6825         -DE/DX =    0.0                 !
 ! D19   D(6,2,12,4)            84.6706         -DE/DX =    0.0                 !
 ! D20   D(7,2,12,4)          -162.6383         -DE/DX =    0.0                 !
 ! D21   D(5,3,4,1)            -73.9528         -DE/DX =    0.0                 !
 ! D22   D(5,3,4,11)           177.557          -DE/DX =    0.0                 !
 ! D23   D(5,3,4,12)            -3.1606         -DE/DX =    0.0                 !
 ! D24   D(10,3,4,1)           111.6764         -DE/DX =    0.0                 !
 ! D25   D(10,3,4,11)            3.1862         -DE/DX =    0.0                 !
 ! D26   D(10,3,4,12)         -177.5314         -DE/DX =    0.0                 !
 ! D27   D(5,3,9,1)            -24.5422         -DE/DX =    0.0                 !
 ! D28   D(10,3,9,1)            87.8646         -DE/DX =    0.0                 !
 ! D29   D(1,4,12,2)            16.049          -DE/DX =    0.0                 !
 ! D30   D(3,4,12,2)           -30.2679         -DE/DX =    0.0                 !
 ! D31   D(9,4,12,2)            20.0637         -DE/DX =    0.0                 !
 ! D32   D(11,4,12,2)          148.9913         -DE/DX =    0.0                 !
 --------------------------------------------------------------------------------
 GradGradGradGradGradGradGradGradGradGradGradGradGradGradGradGradGradGrad


 ----------------------------------------------------------------------

 Electric dipole moment (input orientation):
 (Debye = 10**-18 statcoulomb cm , SI units = C m)
                  (au)            (Debye)         (10**-30 SI)
   Tot        0.551046D+00      0.140062D+01      0.467196D+01
   x          0.949745D-01      0.241401D+00      0.805227D+00
   y         -0.525687D+00     -0.133616D+01     -0.445696D+01
   z         -0.135222D+00     -0.343699D+00     -0.114646D+01

 Dipole polarizability, Alpha (input orientation).
 (esu units = cm**3 , SI units = C**2 m**2 J**-1)
 Alpha(0;0):
               (au)            (10**-24 esu)      (10**-40 SI)
   iso        0.412104D+02      0.610675D+01      0.679467D+01
   aniso      0.194547D+02      0.288289D+01      0.320764D+01
   xx         0.441004D+02      0.653500D+01      0.727117D+01
   yx         0.382239D+01      0.566420D+00      0.630228D+00
   yy         0.371403D+02      0.550362D+01      0.612360D+01
   zx        -0.764130D+01     -0.113232D+01     -0.125988D+01
   zy        -0.632504D+01     -0.937275D+00     -0.104286D+01
   zz         0.423905D+02      0.628162D+01      0.698925D+01

 ----------------------------------------------------------------------

 Dipole orientation:
     7          3.25031425         -0.14634977          0.92865094
     5          3.58126747         -2.45934552         -0.26360308
     7         -2.89406890          0.17416599         -0.13419715
     5         -3.63118163          2.60613904         -0.83130111
     1         -1.94660866         -1.01583646         -1.29057702
     1          1.80015549         -3.44345121         -1.26379153
     1          5.61529173         -3.43940025         -0.27681098
     1          4.66718190          0.79017658          1.79650548
     1          1.56741761          0.75965620          0.97783335
     1         -3.38950111         -0.63202998          1.52361907
     1         -4.81878195          3.85056808          0.63218669
     1         -3.03490101          3.38938507         -2.86286991

 Electric dipole moment (dipole orientation):
 (Debye = 10**-18 statcoulomb cm , SI units = C m)
                  (au)            (Debye)         (10**-30 SI)
   Tot        0.551046D+00      0.140062D+01      0.467196D+01
   x          0.000000D+00      0.000000D+00      0.000000D+00
   y          0.000000D+00      0.000000D+00      0.000000D+00
   z          0.551046D+00      0.140062D+01      0.467196D+01

 Dipole polarizability, Alpha (dipole orientation).
 (esu units = cm**3 , SI units = C**2 m**2 J**-1)
 Alpha(0;0):
               (au)            (10**-24 esu)      (10**-40 SI)
   iso        0.412104D+02      0.610675D+01      0.679467D+01
   aniso      0.194547D+02      0.288289D+01      0.320764D+01
   xx         0.420545D+02      0.623183D+01      0.693385D+01
   yx        -0.854997D+01     -0.126697D+01     -0.140970D+01
   yy         0.474855D+02      0.703662D+01      0.782930D+01
   zx         0.324679D+00      0.481124D-01      0.535323D-01
   zy         0.275103D+01      0.407661D+00      0.453584D+00
   zz         0.340912D+02      0.505179D+01      0.562088D+01

 ----------------------------------------------------------------------
 1\1\GINC-MNODE009\Freq\UB3LYP\6-31G(d,p)\B2H8N2\MARIAHARRIS\03-Jul-202
 0\0\\#N Geom=AllCheck Guess=TCheck SCRF=Check GenChk UB3LYP/6-31G(d,p)
  Freq\\something title\\0,1\N,1.7738887622,-0.2208738718,0.1019750021\
 B,1.9976996751,0.7336765971,-0.8806765364\N,-1.5193533191,-0.159260229
 2,-0.1586052284\B,-2.1335998461,-0.2053441941,1.0924081564\H,-1.052267
 5957,0.6602505546,-0.5227720049\H,1.0551883827,1.2543732678,-1.4100443
 765\H,3.1156511543,1.0220852425,-1.1882030129\H,2.5195023297,-0.693433
 7679,0.5912868446\H,0.8457684415,-0.492361839,0.399473104\H,-1.5677453
 96,-0.9159145156,-0.8260549397\H,-2.7005237034,-1.2044222983,1.4222691
 467\H,-2.0655988853,0.7503050538,1.806003845\\Version=EM64L-G16RevA.03
 \State=1-A\HF=-164.1011069\S2=0.\S2-1=0.\S2A=0.\RMSD=1.774e-09\RMSF=3.
 695e-06\ZeroPoint=0.0978004\Thermal=0.1057904\Dipole=0.0949745,-0.5256
 866,-0.1352216\DipoleDeriv=-0.4400502,-0.0873025,0.1015003,-0.0780508,
 -0.727458,0.1058446,0.0739471,0.0985598,-0.713652,0.6324425,0.0534575,
 -0.0685704,0.0225162,0.5601572,-0.2956245,-0.0208542,-0.2929091,0.5744
 026,-0.8907421,0.0356114,0.1960474,0.1197047,-0.3369542,0.0507912,0.20
 06325,0.0607641,-0.7632677,0.4988399,0.1067919,-0.2572984,0.0912892,0.
 5388896,0.0298909,-0.3801968,0.0257227,0.8055003,0.3699955,-0.0390509,
 0.015703,-0.0548175,0.1560369,-0.0193294,0.0501477,0.0128321,0.1485616
 ,-0.3274737,0.0834495,-0.0756614,0.0578513,-0.1498103,0.024174,-0.0546
 425,0.027557,-0.1515074,-0.3175104,-0.0671346,0.0776157,-0.0062891,-0.
 1233539,-0.0000389,0.0093641,0.0004798,-0.1240195,0.1318601,0.0046985,
 0.0006921,0.0240076,0.220691,0.0887513,-0.0261913,0.0888525,0.208449,0
 .3511317,0.0164876,-0.0457311,-0.0419168,0.1976323,0.0795303,0.0532195
 ,0.0751144,0.1751702,0.2863851,-0.0165724,0.0439192,-0.0427292,0.16345
 75,-0.0174717,0.0603726,-0.0486842,0.1365221,-0.1712111,-0.060719,0.03
 13056,-0.1014736,-0.2578049,0.0680509,0.0190026,0.0038895,-0.1246912,-
 0.1236673,-0.029717,-0.0195218,0.0099078,-0.2414833,-0.1145686,0.01519
 86,-0.0521786,-0.1714679\Polar=44.1003829,3.8223946,37.140257,-7.64129
 64,-6.3250427,42.3905058\Quadrupole=-1.079529,1.1742863,-0.0947573,-1.
 9806643,4.6855044,0.5548599\PG=C01 [X(B2H8N2)]\NImag=0\\0.76493755,-0.
 00285967,0.40878642,-0.00453006,-0.37411795,0.43849267,-0.10169751,-0.
 03618461,0.03797164,0.46475761,-0.03472450,-0.21407127,0.18486691,0.01
 800898,0.34255253,0.03628758,0.18416359,-0.22565240,-0.02153351,-0.237
 61446,0.35696530,-0.00471486,-0.00071681,-0.00062963,0.00050662,0.0017
 5126,-0.00157903,0.24044977,0.00032975,0.00126636,0.00015136,0.0004785
 8,-0.00072475,0.00060733,0.21616476,0.67036376,0.00112418,-0.00016004,
 0.00223388,-0.00131255,0.00113267,-0.00147239,-0.23643325,0.08958993,0
 .68913808,0.00078357,0.00030805,-0.00054919,-0.00032959,-0.00064906,0.
 00059742,-0.10759081,-0.02263461,0.14082051,0.23461218,0.00022047,-0.0
 0030732,-0.00024674,-0.00002622,-0.00024069,0.00036799,-0.02234119,-0.
 08638934,0.00187381,0.10744063,0.42410407,-0.00230423,-0.00018946,-0.0
 0130604,0.00097218,0.00022396,0.00013580,0.13606051,0.00243195,-0.3319
 4316,-0.16160075,0.04643157,0.50116027,0.00049966,-0.00079537,0.000626
 15,-0.00185393,0.00120810,-0.00117034,-0.10902491,-0.16061341,0.075322
 19,-0.00460573,-0.00992550,0.00269155,0.11407662,-0.00050539,-0.000535
 84,0.00019317,-0.00041850,0.00096029,-0.00098896,-0.15752908,-0.314619
 69,0.09933771,0.00124719,0.00290573,-0.00048208,0.16643483,0.32842887,
 0.00043171,0.00020432,-0.00094303,0.00052446,-0.00140758,0.00164747,0.
 08232674,0.11245651,-0.11071044,0.00947454,0.02280034,-0.00237451,-0.0
 7899909,-0.11212267,0.10530665,0.00715035,-0.00025105,0.00026785,-0.15
 821782,0.06109414,-0.06193971,-0.00099230,-0.00045827,0.00156210,0.000
 09261,-0.00026112,-0.00072618,0.00087722,0.00007633,-0.00051217,0.1608
 9549,0.01505412,-0.00332026,0.01170301,0.05694620,-0.07123499,0.032774
 66,-0.00033896,0.00021165,-0.00010983,0.00005739,0.00003075,0.00002813
 ,-0.00056416,-0.00051424,0.00031383,-0.06776650,0.06724682,-0.01541393
 ,0.01174384,-0.00387507,-0.05771947,0.03293466,-0.07250782,0.00016667,
 0.00002456,0.00057635,-0.00005822,-0.00011176,-0.00021184,0.00041882,0
 .00009423,-0.00066305,0.06872363,-0.04840861,0.06925890,-0.00035460,-0
 .00162018,0.00172114,-0.20995040,-0.04166421,0.04449600,-0.00080572,0.
 00014070,0.00051139,0.00031940,-0.00009133,-0.00060053,0.00085268,-0.0
 0007236,-0.00018016,-0.01054956,-0.00341721,0.00370453,0.21878018,-0.0
 1854089,0.00090258,0.00800626,-0.03638645,-0.04995739,0.01124507,-0.00
 034408,0.00015950,-0.00022401,0.00013003,0.00003968,-0.00004416,-0.000
 28638,-0.00017301,0.00024316,0.00789161,0.00741213,0.00098923,0.047367
 53,0.04141431,0.01906752,0.00780148,0.00022358,0.03904325,0.01137260,-
 0.05136692,0.00037145,-0.00014620,0.00029988,-0.00011090,-0.00006559,0
 .00000221,0.00023429,0.00015765,-0.00031612,-0.00797461,0.00110881,0.0
 0742212,-0.05059651,-0.02266632,0.04363625,-0.28001820,0.13040861,-0.1
 3433459,0.00680500,-0.00270772,0.00278208,-0.00141054,0.00013772,0.000
 27444,0.00013392,0.00006906,-0.00063345,0.00015328,-0.00026725,0.00021
 508,0.00109527,-0.00098157,0.00101985,0.00007409,-0.00023072,0.0002185
 9,0.28976453,0.13884274,-0.12420741,0.11346942,0.01701445,-0.00559985,
 0.00653770,-0.00071710,0.00004578,0.00004542,0.00010791,0.00017023,-0.
 00016964,0.00005954,-0.00015081,0.00018138,-0.00125604,0.00232086,0.00
 615808,-0.00077368,-0.00190220,-0.00386255,-0.14424366,0.12524992,-0.1
 4373379,0.11400837,-0.13292983,-0.01751111,0.00629118,-0.00578664,0.00
 087731,-0.00018058,-0.00011638,-0.00016749,0.00003187,0.00046753,-0.00
 007350,0.00024428,-0.00020448,0.00133680,0.00612743,0.00196589,0.00074
 833,-0.00381563,-0.00164977,0.14889728,-0.11490917,0.13343334,-0.38673
 720,-0.08930047,0.09864787,0.00003209,-0.00177158,0.00187542,0.0041849
 7,-0.00103326,-0.00118041,-0.00282792,0.00017285,0.00373659,-0.0009824
 4,0.00156319,-0.00129980,-0.00024500,0.00078180,-0.00090778,0.00161758
 ,0.00031940,-0.00020822,-0.01667492,-0.00907397,0.00973609,0.40175372,
 -0.09786502,-0.06870952,0.05581908,-0.01944195,-0.00167649,0.00299064,
 -0.00075717,-0.00135092,-0.00023745,0.00039644,0.00041844,-0.00032644,
 0.00154736,-0.00070315,0.00117356,0.00091900,-0.00225703,-0.00354521,0
 .00012235,0.00209427,0.00628105,0.01782405,0.00412508,-0.00780465,0.09
 855942,0.06825685,0.10849120,0.05608039,-0.07672014,0.01983692,0.00243
 145,-0.00202077,0.00257971,-0.00077779,-0.00294794,0.00041473,-0.00004
 077,0.00231825,-0.00111802,0.00099940,-0.00009721,-0.00096500,-0.00349
 735,-0.00198892,-0.00005786,0.00624492,0.00178233,-0.01861547,-0.00749
 328,0.00497815,-0.10897990,-0.05394842,0.07577434,0.00029185,0.0010020
 6,0.00043926,-0.00019440,-0.00068016,0.00036964,-0.02873548,-0.0290898
 6,0.00397380,0.00242845,0.01170096,0.00712851,-0.00200307,-0.01083287,
 -0.01351716,-0.00002984,0.00021421,0.00004583,0.00014873,0.00010996,-0
 .00007895,0.00005875,0.00009155,-0.00009874,-0.00053559,-0.00109655,-0
 .00130654,0.02757143,0.00013759,-0.00031222,0.00000884,-0.00014816,0.0
 0016856,-0.00008206,-0.03211667,-0.27756486,-0.19070876,0.00072286,0.0
 0347277,0.00153282,0.00235871,-0.01757775,-0.02175589,0.00008244,0.000
 01811,0.00009049,0.00004626,-0.00002328,0.00002008,0.00003316,0.000070
 09,0.00004310,-0.00016455,0.00030923,0.00009401,0.02983157,0.28955440,
 0.00017930,0.00041562,-0.00008282,0.00005852,-0.00038776,0.00038421,0.
 00130555,-0.20416657,-0.22892459,-0.00489826,-0.02132216,-0.01057378,0
 .00043852,0.01369856,0.01024835,-0.00011911,0.00000056,-0.00010805,0.0
 0006037,0.00005434,-0.00009029,0.00006096,0.00004971,-0.00004033,-0.00
 072271,-0.00040340,-0.00046603,0.00085882,0.20991912,0.23056835,-0.000
 10500,-0.00002012,0.00009630,0.00011325,0.00002950,-0.00003394,0.00052
 289,-0.01224190,0.00596638,-0.08116747,-0.07307851,0.02359955,0.005464
 34,-0.00153868,0.00418023,-0.00007718,0.00001904,-0.00001227,-0.000092
 73,-0.00000803,0.00001271,0.00000298,-0.00001451,0.00000631,0.00026117
 ,-0.00003254,-0.00006980,-0.00386259,0.00165775,-0.00199011,0.07206321
 ,-0.00021608,0.00026834,-0.00001218,0.00019556,-0.00009654,0.00003000,
 -0.00231902,0.00363157,0.00029685,-0.07620371,-0.17706082,0.04154106,-
 0.00160842,0.00233024,-0.00174830,-0.00013426,0.00005697,-0.00000664,-
 0.00009126,0.00001838,-0.00000670,-0.00006396,-0.00008237,0.00001631,0
 .00031498,-0.00033804,0.00011266,0.00127406,-0.00048996,0.00183901,0.0
 8751358,0.17952887,0.00019385,-0.00006750,0.00022603,-0.00018880,0.000
 15002,-0.00020847,0.01415879,0.02062608,-0.00399986,0.02131067,0.03493
 520,-0.05383473,0.00435047,-0.00129825,-0.00224203,0.00023117,-0.00004
 841,0.00006731,0.00011493,-0.00003074,0.00004172,0.00005094,0.00000516
 ,-0.00004708,-0.00029942,0.00010418,-0.00024215,-0.00248572,0.00135533
 ,0.00101646,-0.03421217,-0.04571508,0.05240667,-0.00003562,0.00002956,
 0.00027327,0.00002907,0.00010524,-0.00015161,0.00761036,0.00881980,0.0
 0937122,-0.04184861,-0.01388009,-0.00832375,-0.00345372,0.00184259,-0.
 00264440,0.00000075,-0.00000435,0.00003235,-0.00003966,-0.00002199,0.0
 0002138,0.00001584,-0.00003725,-0.00001751,0.00015354,-0.00017538,-0.0
 0020997,0.00486176,-0.00244096,0.00476814,0.00687714,-0.00866147,-0.00
 322470,0.02582915,0.00012688,0.00024013,0.00015880,-0.00003789,-0.0000
 7942,-0.00003150,-0.00073594,0.00497093,-0.00083629,-0.01092312,-0.167
 14351,-0.09097771,0.00218471,-0.00035064,-0.00033867,0.00006371,0.0000
 2923,0.00003714,0.00005338,0.00001504,0.00000569,0.00002228,-0.0000393
 0,-0.00005252,-0.00036780,-0.00016872,-0.00020523,-0.00252493,0.002374
 92,0.00030297,-0.00228558,-0.00776664,-0.01001600,0.01442430,0.1679179
 8,0.00020667,0.00011735,0.00033318,-0.00014154,0.00000634,-0.00011737,
 0.00079516,-0.02061660,-0.01213344,-0.00523306,-0.08465376,-0.10384001
 ,-0.00272104,0.00016696,0.00034842,0.00011523,0.00000776,0.00006417,0.
 00007836,-0.00000213,0.00001502,0.00006430,-0.00001222,-0.00007040,-0.
 00039773,-0.00010294,-0.00036989,0.00467125,-0.00051708,-0.00193146,0.
 00245681,0.00365300,0.00681613,0.00010558,0.10195332,0.11088565\\-0.00
 000526,0.00000204,-0.00000241,-0.00000574,-0.00000657,0.00000850,0.000
 00252,0.00000088,0.00000206,-0.00000286,-0.00000309,0.00000075,-0.0000
 0332,0.00000245,-0.00000234,0.00000060,0.00000311,-0.00000126,-0.00000
 132,-0.00000130,0.00000088,0.00000035,-0.00000182,0.00000083,0.0000131
 6,0.00000437,-0.00000581,0.00000085,-0.00000052,0.00000010,-0.00000096
 ,0.00000003,-0.00000009,0.00000198,0.00000041,-0.00000121\\\@


 CHEMISTRY BEGAN BY SAYING IT WOULD CHANGE THE BASER
 METALS INTO GOLD.  BY NOT DOING THAT IT HAS DONE MUCH
 GREATER THINGS.  --  RALPH WALDO EMERSON
 Job cpu time:       0 days  0 hours  9 minutes 14.6 seconds.
 Elapsed time:       0 days  0 hours  2 minutes 18.7 seconds.
 File lengths (MBytes):  RWF=     29 Int=      0 D2E=      0 Chk=      2 Scr=      1
 Normal termination of Gaussian 16 at Fri Jul  3 17:36:28 2020.
