 Entering Gaussian System, Link 0=/opt/gaussian/g16/legacy/g16/g16
 Initial command:
 /opt/gaussian/g16/legacy/g16/l1.exe "/scratch/1311821/Gau-25994.inp" -scrdir="/scratch/1311821/"
 Entering Link 1 = /opt/gaussian/g16/legacy/g16/l1.exe PID=     26010.
  
 Copyright (c) 1988,1990,1992,1993,1995,1998,2003,2009,2016,
            Gaussian, Inc.  All Rights Reserved.
  
 This is part of the Gaussian(R) 16 program.  It is based on
 the Gaussian(R) 09 system (copyright 2009, Gaussian, Inc.),
 the Gaussian(R) 03 system (copyright 2003, Gaussian, Inc.),
 the Gaussian(R) 98 system (copyright 1998, Gaussian, Inc.),
 the Gaussian(R) 94 system (copyright 1995, Gaussian, Inc.),
 the Gaussian 92(TM) system (copyright 1992, Gaussian, Inc.),
 the Gaussian 90(TM) system (copyright 1990, Gaussian, Inc.),
 the Gaussian 88(TM) system (copyright 1988, Gaussian, Inc.),
 the Gaussian 86(TM) system (copyright 1986, Carnegie Mellon
 University), and the Gaussian 82(TM) system (copyright 1983,
 Carnegie Mellon University). Gaussian is a federally registered
 trademark of Gaussian, Inc.
  
 This software contains proprietary and confidential information,
 including trade secrets, belonging to Gaussian, Inc.
  
 This software is provided under written license and may be
 used, copied, transmitted, or stored only in accord with that
 written license.
  
 The following legend is applicable only to US Government
 contracts under FAR:
  
                    RESTRICTED RIGHTS LEGEND
  
 Use, reproduction and disclosure by the US Government is
 subject to restrictions as set forth in subparagraphs (a)
 and (c) of the Commercial Computer Software - Restricted
 Rights clause in FAR 52.227-19.
  
 Gaussian, Inc.
 340 Quinnipiac St., Bldg. 40, Wallingford CT 06492
  
  
 ---------------------------------------------------------------
 Warning -- This program may not be used in any manner that
 competes with the business of Gaussian, Inc. or will provide
 assistance to any competitor of Gaussian, Inc.  The licensee
 of this program is prohibited from giving any competitor of
 Gaussian, Inc. access to this program.  By using this program,
 the user acknowledges that Gaussian, Inc. is engaged in the
 business of creating and licensing software in the field of
 computational chemistry and represents and warrants to the
 licensee that it is not a competitor of Gaussian, Inc. and that
 it will not use this program in any manner prohibited above.
 ---------------------------------------------------------------
  

 Cite this work as:
 Gaussian 16, Revision A.03,
 M. J. Frisch, G. W. Trucks, H. B. Schlegel, G. E. Scuseria, 
 M. A. Robb, J. R. Cheeseman, G. Scalmani, V. Barone, 
 G. A. Petersson, H. Nakatsuji, X. Li, M. Caricato, A. V. Marenich, 
 J. Bloino, B. G. Janesko, R. Gomperts, B. Mennucci, H. P. Hratchian, 
 J. V. Ortiz, A. F. Izmaylov, J. L. Sonnenberg, D. Williams-Young, 
 F. Ding, F. Lipparini, F. Egidi, J. Goings, B. Peng, A. Petrone, 
 T. Henderson, D. Ranasinghe, V. G. Zakrzewski, J. Gao, N. Rega, 
 G. Zheng, W. Liang, M. Hada, M. Ehara, K. Toyota, R. Fukuda, 
 J. Hasegawa, M. Ishida, T. Nakajima, Y. Honda, O. Kitao, H. Nakai, 
 T. Vreven, K. Throssell, J. A. Montgomery, Jr., J. E. Peralta, 
 F. Ogliaro, M. J. Bearpark, J. J. Heyd, E. N. Brothers, K. N. Kudin, 
 V. N. Staroverov, T. A. Keith, R. Kobayashi, J. Normand, 
 K. Raghavachari, A. P. Rendell, J. C. Burant, S. S. Iyengar, 
 J. Tomasi, M. Cossi, J. M. Millam, M. Klene, C. Adamo, R. Cammi, 
 J. W. Ochterski, R. L. Martin, K. Morokuma, O. Farkas, 
 J. B. Foresman, and D. J. Fox, Gaussian, Inc., Wallingford CT, 2016.
 
 ******************************************
 Gaussian 16:  EM64L-G16RevA.03 25-Dec-2016
                 3-Jul-2020 
 ******************************************
 %mem=16GB
 %nprocshared=4
 Will use up to    4 processors via shared memory.
 ------------------------------------------------
 #opt freq ub3lyp/6-31G(d,p) scf=(maxcycles=1024)
 ------------------------------------------------
 1/18=20,19=15,26=3,38=1/1,3;
 2/9=110,12=2,17=6,18=5,40=1/2;
 3/5=1,6=6,7=101,11=2,25=1,30=1,71=1,74=-5,116=2/1,2,3;
 4//1;
 5/5=2,7=1024,38=5/2;
 6/7=2,8=2,9=2,10=2,28=1/1;
 7//1,2,3,16;
 1/18=20,19=15,26=3/3(2);
 2/9=110/2;
 99//99;
 2/9=110/2;
 3/5=1,6=6,7=101,11=2,25=1,30=1,71=1,74=-5,116=2/1,2,3;
 4/5=5,16=3,69=1/1;
 5/5=2,7=1024,38=5/2;
 7//1,2,3,16;
 1/18=20,19=15,26=3/3(-5);
 2/9=110/2;
 6/7=2,8=2,9=2,10=2,19=2,28=1/1;
 99/9=1/99;
 ---------------
 something title
 ---------------
 Symbolic Z-matrix:
 Charge =  0 Multiplicity = 1
 N                     1.06214  -0.71702  -0.1577 
 B                     1.28986   0.73652  -0.12168 
 N                    -1.68556   0.0381   -0.23801 
 B                    -0.5541    0.08347   0.63427 
 H                    -1.82446   0.67754  -1.00422 
 H                     1.09641   1.34657  -1.13317 
 H                     2.06088   1.15806   0.68906 
 H                     1.54896  -1.33722   0.47564 
 H                     0.77916  -1.17858  -1.01498 
 H                    -2.37131  -0.69869  -0.19216 
 H                    -0.5578   -0.46369   1.69923 
 H                     0.03931   1.1845    0.66364 
 
 Add virtual bond connecting atoms H12        and B2         Dist= 2.92D+00.

 GradGradGradGradGradGradGradGradGradGradGradGradGradGradGradGradGradGrad
 Berny optimization.
 Initialization pass.
                           ----------------------------
                           !    Initial Parameters    !
                           ! (Angstroms and Degrees)  !
 --------------------------                            --------------------------
 ! Name  Definition              Value          Derivative Info.                !
 --------------------------------------------------------------------------------
 ! R1    R(1,2)                  1.4717         estimate D2E/DX2                !
 ! R2    R(1,8)                  1.0113         estimate D2E/DX2                !
 ! R3    R(1,9)                  1.0139         estimate D2E/DX2                !
 ! R4    R(2,6)                  1.197          estimate D2E/DX2                !
 ! R5    R(2,7)                  1.1956         estimate D2E/DX2                !
 ! R6    R(2,12)                 1.5431         estimate D2E/DX2                !
 ! R7    R(3,4)                  1.4294         estimate D2E/DX2                !
 ! R8    R(3,5)                  1.0076         estimate D2E/DX2                !
 ! R9    R(3,10)                 1.0076         estimate D2E/DX2                !
 ! R10   R(4,11)                 1.1973         estimate D2E/DX2                !
 ! R11   R(4,12)                 1.2511         estimate D2E/DX2                !
 ! A1    A(2,1,8)              121.0561         estimate D2E/DX2                !
 ! A2    A(2,1,9)              120.8958         estimate D2E/DX2                !
 ! A3    A(8,1,9)              112.6239         estimate D2E/DX2                !
 ! A4    A(1,2,6)              117.2379         estimate D2E/DX2                !
 ! A5    A(1,2,7)              117.6844         estimate D2E/DX2                !
 ! A6    A(1,2,12)             100.0078         estimate D2E/DX2                !
 ! A7    A(6,2,7)              119.8387         estimate D2E/DX2                !
 ! A8    A(6,2,12)              98.692          estimate D2E/DX2                !
 ! A9    A(7,2,12)              94.3104         estimate D2E/DX2                !
 ! A10   A(4,3,5)              123.5752         estimate D2E/DX2                !
 ! A11   A(4,3,10)             122.2883         estimate D2E/DX2                !
 ! A12   A(5,3,10)             113.8814         estimate D2E/DX2                !
 ! A13   A(3,4,11)             121.7251         estimate D2E/DX2                !
 ! A14   A(3,4,12)             114.69           estimate D2E/DX2                !
 ! A15   A(11,4,12)            112.5048         estimate D2E/DX2                !
 ! A16   A(2,12,4)              96.716          estimate D2E/DX2                !
 ! D1    D(8,1,2,6)            153.8087         estimate D2E/DX2                !
 ! D2    D(8,1,2,7)             -0.619          estimate D2E/DX2                !
 ! D3    D(8,1,2,12)          -100.9173         estimate D2E/DX2                !
 ! D4    D(9,1,2,6)              1.7233         estimate D2E/DX2                !
 ! D5    D(9,1,2,7)           -152.7043         estimate D2E/DX2                !
 ! D6    D(9,1,2,12)           106.9974         estimate D2E/DX2                !
 ! D7    D(1,2,12,4)            -9.8981         estimate D2E/DX2                !
 ! D8    D(6,2,12,4)           109.9126         estimate D2E/DX2                !
 ! D9    D(7,2,12,4)          -129.0036         estimate D2E/DX2                !
 ! D10   D(5,3,4,11)           162.3096         estimate D2E/DX2                !
 ! D11   D(5,3,4,12)            21.0953         estimate D2E/DX2                !
 ! D12   D(10,3,4,11)          -23.8511         estimate D2E/DX2                !
 ! D13   D(10,3,4,12)         -165.0654         estimate D2E/DX2                !
 ! D14   D(3,4,12,2)          -107.601          estimate D2E/DX2                !
 ! D15   D(11,4,12,2)          107.62           estimate D2E/DX2                !
 --------------------------------------------------------------------------------
 Trust Radius=3.00D-01 FncErr=1.00D-07 GrdErr=1.00D-06 EigMax=2.50D+02 EigMin=1.00D-04
 Number of steps in this run=     52 maximum allowed number of steps=    100.
 GradGradGradGradGradGradGradGradGradGradGradGradGradGradGradGradGradGrad

                          Input orientation:                          
 ---------------------------------------------------------------------
 Center     Atomic      Atomic             Coordinates (Angstroms)
 Number     Number       Type             X           Y           Z
 ---------------------------------------------------------------------
      1          7           0        1.062140   -0.717020   -0.157700
      2          5           0        1.289860    0.736520   -0.121680
      3          7           0       -1.685560    0.038100   -0.238010
      4          5           0       -0.554100    0.083470    0.634270
      5          1           0       -1.824460    0.677540   -1.004220
      6          1           0        1.096410    1.346570   -1.133170
      7          1           0        2.060880    1.158060    0.689060
      8          1           0        1.548960   -1.337220    0.475640
      9          1           0        0.779160   -1.178580   -1.014980
     10          1           0       -2.371310   -0.698690   -0.192160
     11          1           0       -0.557800   -0.463690    1.699230
     12          1           0        0.039310    1.184500    0.663640
 ---------------------------------------------------------------------
                    Distance matrix (angstroms):
                    1          2          3          4          5
     1  N    0.000000
     2  B    1.471711   0.000000
     3  N    2.850704   3.058504   0.000000
     4  B    1.969831   2.097170   1.429382   0.000000
     5  H    3.315698   3.237490   1.007598   2.156707   0.000000
     6  H    2.282788   1.196953   3.201993   2.728269   2.999285
     7  H    2.287009   1.195603   4.018654   2.827696   4.265438
     8  H    1.011317   2.173550   3.586491   2.542909   4.198715
     9  H    1.013925   2.174030   2.856368   2.467869   3.197520
    10  H    3.433672   3.933060   1.007579   2.144065   1.688933
    11  H    2.477210   2.858333   2.297071   1.197304   3.196166
    12  H    2.310099   1.543143   2.258845   1.251106   2.551941
                    6          7          8          9         10
     6  H    0.000000
     7  H    2.070329   0.000000
     8  H    3.161613   2.556175   0.000000
     9  H    2.547744   3.163297   1.685143   0.000000
    10  H    4.134449   4.885527   4.027679   3.291320   0.000000
    11  H    3.746457   3.241605   2.588178   3.108933   2.630855
    12  H    2.090993   2.021903   2.945074   2.991536   3.176458
                   11         12
    11  H    0.000000
    12  H    2.036054   0.000000
 Stoichiometry    B2H8N2
 Framework group  C1[X(B2H8N2)]
 Deg. of freedom    30
 Full point group                 C1      NOp   1
 Largest Abelian subgroup         C1      NOp   1
 Largest concise Abelian subgroup C1      NOp   1
                         Standard orientation:                         
 ---------------------------------------------------------------------
 Center     Atomic      Atomic             Coordinates (Angstroms)
 Number     Number       Type             X           Y           Z
 ---------------------------------------------------------------------
      1          7           0        1.051312   -0.720818   -0.194855
      2          5           0        1.291613    0.728835   -0.113041
      3          7           0       -1.690787    0.058313   -0.213725
      4          5           0       -0.547880    0.065316    0.644673
      5          1           0       -1.834167    0.724277   -0.956145
      6          1           0        1.090294    1.374121   -1.100853
      7          1           0        2.076475    1.116710    0.701215
      8          1           0        1.541026   -1.365833    0.410865
      9          1           0        0.753501   -1.150986   -1.063364
     10          1           0       -2.382024   -0.674150   -0.183650
     11          1           0       -0.542477   -0.517357    1.690618
     12          1           0        0.055036    1.159999    0.703210
 ---------------------------------------------------------------------
 Rotational constants (GHZ):          14.2745593           4.6663279           4.3050800
 Standard basis: 6-31G(d,p) (6D, 7F)
 There are   100 symmetry adapted cartesian basis functions of A   symmetry.
 There are   100 symmetry adapted basis functions of A   symmetry.
   100 basis functions,   168 primitive gaussians,   100 cartesian basis functions
    16 alpha electrons       16 beta electrons
       nuclear repulsion energy       114.3670825241 Hartrees.
 NAtoms=   12 NActive=   12 NUniq=   12 SFac= 1.00D+00 NAtFMM=   60 NAOKFM=F Big=F
 Integral buffers will be    131072 words long.
 Raffenetti 2 integral format.
 Two-electron integral symmetry is turned on.
 One-electron integrals computed using PRISM.
 NBasis=   100 RedAO= T EigKep=  5.32D-03  NBF=   100
 NBsUse=   100 1.00D-06 EigRej= -1.00D+00 NBFU=   100
 ExpMin= 1.27D-01 ExpMax= 4.17D+03 ExpMxC= 6.27D+02 IAcc=3 IRadAn=         5 AccDes= 0.00D+00
 Harris functional with IExCor=  402 and IRadAn=       5 diagonalized for initial guess.
 HarFok:  IExCor=  402 AccDes= 0.00D+00 IRadAn=         5 IDoV= 1 UseB2=F ITyADJ=14
 ICtDFT=  3500011 ScaDFX=  1.000000  1.000000  1.000000  1.000000
 FoFCou: FMM=F IPFlag=           0 FMFlag=      100000 FMFlg1=           0
         NFxFlg=           0 DoJE=T BraDBF=F KetDBF=T FulRan=T
         wScrn=  0.000000 ICntrl=       500 IOpCl=  0 I1Cent=   200000004 NGrid=           0
         NMat0=    1 NMatS0=      1 NMatT0=    0 NMatD0=    1 NMtDS0=    0 NMtDT0=    0
 Petite list used in FoFCou.
 Initial guess <Sx>= 0.0000 <Sy>= 0.0000 <Sz>= 0.0000 <S**2>=-0.0000 S=-0.0000
 Keep R1 and R2 ints in memory in canonical form, NReq=29209870.
 Requested convergence on RMS density matrix=1.00D-08 within1024 cycles.
 Requested convergence on MAX density matrix=1.00D-06.
 Requested convergence on             energy=1.00D-06.
 No special actions if energy rises.
 Integral accuracy reduced to 1.0D-05 until final iterations.
 Initial convergence to 1.0D-05 achieved.  Increase integral accuracy.
 SCF Done:  E(UB3LYP) =  -164.084254500     A.U. after   12 cycles
            NFock= 12  Conv=0.50D-08     -V/T= 2.0103
 <Sx>= 0.0000 <Sy>= 0.0000 <Sz>= 0.0000 <S**2>=-0.0000 S=-0.0000
 <L.S>= 0.000000000000E+00
 Annihilation of the first spin contaminant:
 S**2 before annihilation    -0.0000,   after     0.0000

 **********************************************************************

            Population analysis using the SCF density.

 **********************************************************************

 Orbital symmetries:
 Alpha Orbitals:
       Occupied  (A) (A) (A) (A) (A) (A) (A) (A) (A) (A) (A) (A)
                 (A) (A) (A) (A)
       Virtual   (A) (A) (A) (A) (A) (A) (A) (A) (A) (A) (A) (A)
                 (A) (A) (A) (A) (A) (A) (A) (A) (A) (A) (A) (A)
                 (A) (A) (A) (A) (A) (A) (A) (A) (A) (A) (A) (A)
                 (A) (A) (A) (A) (A) (A) (A) (A) (A) (A) (A) (A)
                 (A) (A) (A) (A) (A) (A) (A) (A) (A) (A) (A) (A)
                 (A) (A) (A) (A) (A) (A) (A) (A) (A) (A) (A) (A)
                 (A) (A) (A) (A) (A) (A) (A) (A) (A) (A) (A) (A)
 Beta  Orbitals:
       Occupied  (A) (A) (A) (A) (A) (A) (A) (A) (A) (A) (A) (A)
                 (A) (A) (A) (A)
       Virtual   (A) (A) (A) (A) (A) (A) (A) (A) (A) (A) (A) (A)
                 (A) (A) (A) (A) (A) (A) (A) (A) (A) (A) (A) (A)
                 (A) (A) (A) (A) (A) (A) (A) (A) (A) (A) (A) (A)
                 (A) (A) (A) (A) (A) (A) (A) (A) (A) (A) (A) (A)
                 (A) (A) (A) (A) (A) (A) (A) (A) (A) (A) (A) (A)
                 (A) (A) (A) (A) (A) (A) (A) (A) (A) (A) (A) (A)
                 (A) (A) (A) (A) (A) (A) (A) (A) (A) (A) (A) (A)
 The electronic state is 1-A.
 Alpha  occ. eigenvalues --  -14.34178 -14.30096  -6.75198  -6.74121  -0.87593
 Alpha  occ. eigenvalues --   -0.83423  -0.57177  -0.51164  -0.49065  -0.47834
 Alpha  occ. eigenvalues --   -0.40273  -0.39562  -0.32695  -0.31451  -0.30864
 Alpha  occ. eigenvalues --   -0.22806
 Alpha virt. eigenvalues --    0.05709   0.07254   0.09395   0.11919   0.13028
 Alpha virt. eigenvalues --    0.15579   0.17803   0.22539   0.23404   0.24805
 Alpha virt. eigenvalues --    0.25846   0.29125   0.42874   0.44213   0.45533
 Alpha virt. eigenvalues --    0.50615   0.52078   0.55464   0.65978   0.70034
 Alpha virt. eigenvalues --    0.73267   0.75387   0.77148   0.83091   0.84195
 Alpha virt. eigenvalues --    0.87557   0.88006   0.89367   0.90483   0.92347
 Alpha virt. eigenvalues --    0.95625   0.98622   0.99757   1.10633   1.14829
 Alpha virt. eigenvalues --    1.25420   1.27893   1.36657   1.39927   1.48019
 Alpha virt. eigenvalues --    1.49115   1.54564   1.61371   1.68085   1.70130
 Alpha virt. eigenvalues --    1.74084   1.78134   1.83821   2.00882   2.08770
 Alpha virt. eigenvalues --    2.15680   2.17877   2.18267   2.20816   2.22296
 Alpha virt. eigenvalues --    2.26509   2.29437   2.34982   2.39354   2.40975
 Alpha virt. eigenvalues --    2.48485   2.52516   2.56218   2.58785   2.61103
 Alpha virt. eigenvalues --    2.63039   2.64815   2.68299   2.74324   2.77632
 Alpha virt. eigenvalues --    2.93983   2.95569   3.03714   3.14015   3.22573
 Alpha virt. eigenvalues --    3.23198   3.29101   3.31258   3.53738   3.56526
 Alpha virt. eigenvalues --    3.64314   3.70360   4.20566   4.23236
  Beta  occ. eigenvalues --  -14.34178 -14.30096  -6.75198  -6.74121  -0.87593
  Beta  occ. eigenvalues --   -0.83423  -0.57177  -0.51164  -0.49065  -0.47834
  Beta  occ. eigenvalues --   -0.40273  -0.39562  -0.32695  -0.31451  -0.30864
  Beta  occ. eigenvalues --   -0.22806
  Beta virt. eigenvalues --    0.05709   0.07254   0.09395   0.11919   0.13028
  Beta virt. eigenvalues --    0.15579   0.17803   0.22539   0.23404   0.24805
  Beta virt. eigenvalues --    0.25846   0.29125   0.42874   0.44213   0.45533
  Beta virt. eigenvalues --    0.50615   0.52078   0.55464   0.65978   0.70034
  Beta virt. eigenvalues --    0.73267   0.75387   0.77148   0.83091   0.84195
  Beta virt. eigenvalues --    0.87557   0.88006   0.89367   0.90483   0.92347
  Beta virt. eigenvalues --    0.95625   0.98622   0.99757   1.10633   1.14829
  Beta virt. eigenvalues --    1.25420   1.27893   1.36657   1.39927   1.48019
  Beta virt. eigenvalues --    1.49115   1.54564   1.61371   1.68085   1.70130
  Beta virt. eigenvalues --    1.74084   1.78134   1.83821   2.00882   2.08770
  Beta virt. eigenvalues --    2.15680   2.17877   2.18267   2.20816   2.22296
  Beta virt. eigenvalues --    2.26509   2.29437   2.34982   2.39354   2.40975
  Beta virt. eigenvalues --    2.48485   2.52516   2.56218   2.58785   2.61103
  Beta virt. eigenvalues --    2.63039   2.64815   2.68299   2.74324   2.77632
  Beta virt. eigenvalues --    2.93983   2.95569   3.03714   3.14015   3.22573
  Beta virt. eigenvalues --    3.23198   3.29101   3.31258   3.53738   3.56526
  Beta virt. eigenvalues --    3.64314   3.70360   4.20566   4.23236
          Condensed to atoms (all electrons):
               1          2          3          4          5          6
     1  N    6.629937   0.352306  -0.037233   0.085431   0.000268  -0.022669
     2  B    0.352306   3.543358  -0.004640   0.076067  -0.000617   0.410199
     3  N   -0.037233  -0.004640   6.507908   0.468834   0.361117  -0.002385
     4  B    0.085431   0.076067   0.468834   3.481181  -0.039078  -0.006509
     5  H    0.000268  -0.000617   0.361117  -0.039078   0.460095   0.001465
     6  H   -0.022669   0.410199  -0.002385  -0.006509   0.001465   0.733711
     7  H   -0.021366   0.411876   0.000495  -0.009815   0.000012  -0.018271
     8  H    0.349033  -0.028939   0.000847  -0.002483   0.000008   0.002857
     9  H    0.340652  -0.026160   0.006701  -0.003639   0.000258  -0.004579
    10  H   -0.000377   0.000848   0.362091  -0.035557  -0.030248  -0.000027
    11  H   -0.022614  -0.011780  -0.020472   0.403568   0.003232   0.000861
    12  H   -0.068008   0.121068  -0.022308   0.306189  -0.003174  -0.018521
               7          8          9         10         11         12
     1  N   -0.021366   0.349033   0.340652  -0.000377  -0.022614  -0.068008
     2  B    0.411876  -0.028939  -0.026160   0.000848  -0.011780   0.121068
     3  N    0.000495   0.000847   0.006701   0.362091  -0.020472  -0.022308
     4  B   -0.009815  -0.002483  -0.003639  -0.035557   0.403568   0.306189
     5  H    0.000012   0.000008   0.000258  -0.030248   0.003232  -0.003174
     6  H   -0.018271   0.002857  -0.004579  -0.000027   0.000861  -0.018521
     7  H    0.724666  -0.003947   0.002769  -0.000020  -0.000542  -0.015372
     8  H   -0.003947   0.433253  -0.025431   0.000010   0.001060   0.002199
     9  H    0.002769  -0.025431   0.437110   0.000180   0.001061   0.002904
    10  H   -0.000020   0.000010   0.000180   0.459512  -0.002094   0.002717
    11  H   -0.000542   0.001060   0.001061  -0.002094   0.737560  -0.010478
    12  H   -0.015372   0.002199   0.002904   0.002717  -0.010478   0.732052
          Atomic-Atomic Spin Densities.
               1          2          3          4          5          6
     1  N    0.000000   0.000000  -0.000000   0.000000   0.000000  -0.000000
     2  B    0.000000   0.000000   0.000000  -0.000000  -0.000000   0.000000
     3  N   -0.000000   0.000000   0.000000  -0.000000  -0.000000  -0.000000
     4  B    0.000000  -0.000000  -0.000000  -0.000000  -0.000000  -0.000000
     5  H    0.000000  -0.000000  -0.000000  -0.000000  -0.000000   0.000000
     6  H   -0.000000   0.000000  -0.000000  -0.000000   0.000000  -0.000000
     7  H   -0.000000  -0.000000   0.000000   0.000000   0.000000   0.000000
     8  H   -0.000000  -0.000000  -0.000000   0.000000  -0.000000  -0.000000
     9  H   -0.000000  -0.000000   0.000000   0.000000   0.000000  -0.000000
    10  H   -0.000000   0.000000  -0.000000  -0.000000   0.000000   0.000000
    11  H   -0.000000   0.000000  -0.000000  -0.000000   0.000000  -0.000000
    12  H   -0.000000  -0.000000   0.000000  -0.000000   0.000000  -0.000000
               7          8          9         10         11         12
     1  N   -0.000000  -0.000000  -0.000000  -0.000000  -0.000000  -0.000000
     2  B   -0.000000  -0.000000  -0.000000   0.000000   0.000000  -0.000000
     3  N    0.000000  -0.000000   0.000000  -0.000000  -0.000000   0.000000
     4  B    0.000000   0.000000   0.000000  -0.000000  -0.000000  -0.000000
     5  H    0.000000  -0.000000   0.000000   0.000000   0.000000   0.000000
     6  H    0.000000  -0.000000  -0.000000   0.000000  -0.000000  -0.000000
     7  H   -0.000000   0.000000   0.000000  -0.000000  -0.000000  -0.000000
     8  H    0.000000  -0.000000   0.000000   0.000000   0.000000   0.000000
     9  H    0.000000   0.000000  -0.000000  -0.000000  -0.000000   0.000000
    10  H   -0.000000   0.000000  -0.000000  -0.000000  -0.000000   0.000000
    11  H   -0.000000   0.000000  -0.000000  -0.000000   0.000000  -0.000000
    12  H   -0.000000   0.000000   0.000000   0.000000  -0.000000  -0.000000
 Mulliken charges and spin densities:
               1          2
     1  N   -0.585361   0.000000
     2  B    0.156414   0.000000
     3  N   -0.620955   0.000000
     4  B    0.275811  -0.000000
     5  H    0.246662  -0.000000
     6  H   -0.076132  -0.000000
     7  H   -0.070484  -0.000000
     8  H    0.271533  -0.000000
     9  H    0.268175  -0.000000
    10  H    0.242965  -0.000000
    11  H   -0.079362  -0.000000
    12  H   -0.029267  -0.000000
 Sum of Mulliken charges =  -0.00000  -0.00000
 Mulliken charges and spin densities with hydrogens summed into heavy atoms:
               1          2
     1  N   -0.045653  -0.000000
     2  B    0.009798  -0.000000
     3  N   -0.131328  -0.000000
     4  B    0.167182  -0.000000
 Electronic spatial extent (au):  <R**2>=            346.9786
 Charge=             -0.0000 electrons
 Dipole moment (field-independent basis, Debye):
    X=             -0.5950    Y=             -2.1687    Z=             -1.4077  Tot=              2.6531
 Quadrupole moment (field-independent basis, Debye-Ang):
   XX=            -26.0068   YY=            -25.6301   ZZ=            -27.6536
   XY=             -2.6429   XZ=              2.5189   YZ=              0.1618
 Traceless Quadrupole moment (field-independent basis, Debye-Ang):
   XX=              0.4234   YY=              0.8001   ZZ=             -1.2235
   XY=             -2.6429   XZ=              2.5189   YZ=              0.1618
 Octapole moment (field-independent basis, Debye-Ang**2):
  XXX=            -15.6499  YYY=            -12.7125  ZZZ=             -8.5926  XYY=             -2.5709
  XXY=            -11.4479  XXZ=             -4.9525  XZZ=             -2.3587  YZZ=             -3.6070
  YYZ=             -2.2590  XYZ=              1.1129
 Hexadecapole moment (field-independent basis, Debye-Ang**3):
 XXXX=           -280.2477 YYYY=           -100.6325 ZZZZ=            -85.0550 XXXY=             -7.4111
 XXXZ=             14.7165 YYYX=            -17.1258 YYYZ=              2.1882 ZZZX=              6.2256
 ZZZY=              2.9633 XXYY=            -61.2186 XXZZ=            -61.5122 YYZZ=            -29.4056
 XXYZ=             -5.0474 YYXZ=              4.2350 ZZXY=             -7.8936
 N-N= 1.143670825241D+02 E-N=-6.090128229004D+02  KE= 1.624112204254D+02
                          Isotropic Fermi Contact Couplings
        Atom                 a.u.       MegaHertz       Gauss      10(-4) cm-1
     1  N(14)              0.00000       0.00000       0.00000       0.00000
     2  B(11)             -0.00000      -0.00000      -0.00000      -0.00000
     3  N(14)             -0.00000      -0.00000      -0.00000      -0.00000
     4  B(11)             -0.00000      -0.00000      -0.00000      -0.00000
     5  H(1)              -0.00000      -0.00000      -0.00000      -0.00000
     6  H(1)              -0.00000      -0.00000      -0.00000      -0.00000
     7  H(1)              -0.00000      -0.00000      -0.00000      -0.00000
     8  H(1)              -0.00000      -0.00000      -0.00000      -0.00000
     9  H(1)              -0.00000      -0.00000      -0.00000      -0.00000
    10  H(1)              -0.00000      -0.00000      -0.00000      -0.00000
    11  H(1)              -0.00000      -0.00000      -0.00000      -0.00000
    12  H(1)              -0.00000      -0.00000      -0.00000      -0.00000
 --------------------------------------------------------
       Center         ----  Spin Dipole Couplings  ----
                      3XX-RR        3YY-RR        3ZZ-RR
 --------------------------------------------------------
     1   Atom        0.000000      0.000000      0.000000
     2   Atom        0.000000      0.000000      0.000000
     3   Atom        0.000000      0.000000      0.000000
     4   Atom        0.000000      0.000000      0.000000
     5   Atom        0.000000      0.000000      0.000000
     6   Atom        0.000000      0.000000      0.000000
     7   Atom        0.000000      0.000000      0.000000
     8   Atom        0.000000      0.000000      0.000000
     9   Atom        0.000000      0.000000      0.000000
    10   Atom        0.000000      0.000000      0.000000
    11   Atom        0.000000      0.000000      0.000000
    12   Atom        0.000000      0.000000      0.000000
 --------------------------------------------------------
                        XY            XZ            YZ
 --------------------------------------------------------
     1   Atom        0.000000      0.000000      0.000000
     2   Atom        0.000000      0.000000      0.000000
     3   Atom        0.000000      0.000000      0.000000
     4   Atom        0.000000      0.000000      0.000000
     5   Atom        0.000000      0.000000      0.000000
     6   Atom        0.000000      0.000000      0.000000
     7   Atom        0.000000      0.000000      0.000000
     8   Atom        0.000000      0.000000      0.000000
     9   Atom        0.000000      0.000000      0.000000
    10   Atom        0.000000      0.000000      0.000000
    11   Atom        0.000000      0.000000      0.000000
    12   Atom        0.000000      0.000000      0.000000
 --------------------------------------------------------


 ---------------------------------------------------------------------------------
              Anisotropic Spin Dipole Couplings in Principal Axis System
 ---------------------------------------------------------------------------------

       Atom             a.u.   MegaHertz   Gauss  10(-4) cm-1        Axes

              Baa     0.0000     0.000     0.000     0.000  1.0000  0.0000  0.0000
     1 N(14)  Bbb     0.0000     0.000     0.000     0.000 -0.0000  1.0000  0.0000
              Bcc     0.0000     0.000     0.000     0.000  0.0000  0.0000  1.0000
 
              Baa     0.0000     0.000     0.000     0.000  1.0000  0.0000  0.0000
     2 B(11)  Bbb     0.0000     0.000     0.000     0.000 -0.0000  1.0000  0.0000
              Bcc     0.0000     0.000     0.000     0.000  0.0000  0.0000  1.0000
 
              Baa     0.0000     0.000     0.000     0.000  1.0000  0.0000  0.0000
     3 N(14)  Bbb     0.0000     0.000     0.000     0.000 -0.0000  1.0000  0.0000
              Bcc     0.0000     0.000     0.000     0.000  0.0000  0.0000  1.0000
 
              Baa     0.0000     0.000     0.000     0.000  1.0000  0.0000  0.0000
     4 B(11)  Bbb     0.0000     0.000     0.000     0.000 -0.0000  1.0000  0.0000
              Bcc     0.0000     0.000     0.000     0.000  0.0000  0.0000  1.0000
 
              Baa     0.0000     0.000     0.000     0.000  1.0000  0.0000  0.0000
     5 H(1)   Bbb     0.0000     0.000     0.000     0.000 -0.0000  1.0000  0.0000
              Bcc     0.0000     0.000     0.000     0.000  0.0000  0.0000  1.0000
 
              Baa     0.0000     0.000     0.000     0.000  1.0000  0.0000  0.0000
     6 H(1)   Bbb     0.0000     0.000     0.000     0.000 -0.0000  1.0000  0.0000
              Bcc     0.0000     0.000     0.000     0.000  0.0000  0.0000  1.0000
 
              Baa     0.0000     0.000     0.000     0.000  1.0000  0.0000  0.0000
     7 H(1)   Bbb     0.0000     0.000     0.000     0.000 -0.0000  1.0000  0.0000
              Bcc     0.0000     0.000     0.000     0.000  0.0000  0.0000  1.0000
 
              Baa     0.0000     0.000     0.000     0.000  1.0000  0.0000  0.0000
     8 H(1)   Bbb     0.0000     0.000     0.000     0.000 -0.0000  1.0000  0.0000
              Bcc     0.0000     0.000     0.000     0.000  0.0000  0.0000  1.0000
 
              Baa     0.0000     0.000     0.000     0.000  1.0000  0.0000  0.0000
     9 H(1)   Bbb     0.0000     0.000     0.000     0.000 -0.0000  1.0000  0.0000
              Bcc     0.0000     0.000     0.000     0.000  0.0000  0.0000  1.0000
 
              Baa     0.0000     0.000     0.000     0.000  1.0000  0.0000  0.0000
    10 H(1)   Bbb     0.0000     0.000     0.000     0.000 -0.0000  1.0000  0.0000
              Bcc     0.0000     0.000     0.000     0.000  0.0000  0.0000  1.0000
 
              Baa     0.0000     0.000     0.000     0.000  1.0000  0.0000  0.0000
    11 H(1)   Bbb     0.0000     0.000     0.000     0.000 -0.0000  1.0000  0.0000
              Bcc     0.0000     0.000     0.000     0.000  0.0000  0.0000  1.0000
 
              Baa     0.0000     0.000     0.000     0.000  1.0000  0.0000  0.0000
    12 H(1)   Bbb     0.0000     0.000     0.000     0.000 -0.0000  1.0000  0.0000
              Bcc     0.0000     0.000     0.000     0.000  0.0000  0.0000  1.0000
 

 ---------------------------------------------------------------------------------

 Calling FoFJK, ICntrl=      2127 FMM=F ISym2X=0 I1Cent= 0 IOpClX= 1 NMat=1 NMatS=1 NMatT=0.
 ***** Axes restored to original set *****
 -------------------------------------------------------------------
 Center     Atomic                   Forces (Hartrees/Bohr)
 Number     Number              X              Y              Z
 -------------------------------------------------------------------
      1        7          -0.007928121   -0.003700598    0.000336125
      2        5          -0.003162665    0.004408282    0.001480671
      3        7           0.001797460    0.001175418    0.000056861
      4        5           0.006526291   -0.007216029   -0.002951441
      5        1           0.000306502   -0.000808984    0.000089165
      6        1           0.000435018   -0.000337931    0.000134858
      7        1           0.000111190   -0.000287455   -0.000369275
      8        1          -0.000521976    0.000906946   -0.000430805
      9        1           0.001114640    0.001929333    0.002596781
     10        1           0.000657823    0.001017180    0.000487591
     11        1           0.000429865    0.001697973   -0.001361347
     12        1           0.000233973    0.001215864   -0.000069186
 -------------------------------------------------------------------
 Cartesian Forces:  Max     0.007928121 RMS     0.002575217

 GradGradGradGradGradGradGradGradGradGradGradGradGradGradGradGradGradGrad
 Berny optimization.
 FormGI is forming the generalized inverse of G from B-inverse, IUseBI=4.
 Internal  Forces:  Max     0.023217062 RMS     0.004970808
 Search for a local minimum.
 Step number   1 out of a maximum of   52
 All quantities printed in internal units (Hartrees-Bohrs-Radians)
 Mixed Optimization -- RFO/linear search
 Second derivative matrix not updated -- first step.
 ITU=  0
     Eigenvalues ---    0.00230   0.00230   0.01272   0.01775   0.01832
     Eigenvalues ---    0.01865   0.02521   0.05017   0.08235   0.10286
     Eigenvalues ---    0.11858   0.12755   0.14636   0.16000   0.16000
     Eigenvalues ---    0.16000   0.16000   0.16000   0.16000   0.21282
     Eigenvalues ---    0.24863   0.24889   0.24989   0.25000   0.35536
     Eigenvalues ---    0.41078   0.45322   0.45753   0.46377   0.46380
 RFO step:  Lambda=-6.77313669D-03 EMin= 2.30000000D-03
 Linear search not attempted -- first point.
 Iteration  1 RMS(Cart)=  0.25536041 RMS(Int)=  0.00960481
 Iteration  2 RMS(Cart)=  0.01877413 RMS(Int)=  0.00030357
 Iteration  3 RMS(Cart)=  0.00011498 RMS(Int)=  0.00030018
 Iteration  4 RMS(Cart)=  0.00000003 RMS(Int)=  0.00030018
 Variable       Old X    -DE/DX   Delta X   Delta X   Delta X     New X
                                 (Linear)    (Quad)   (Total)
    R1        2.78113   0.00193   0.00000   0.00532   0.00532   2.78645
    R2        1.91111  -0.00108   0.00000  -0.00232  -0.00232   1.90879
    R3        1.91604  -0.00339   0.00000  -0.00736  -0.00736   1.90868
    R4        2.26191  -0.00036   0.00000  -0.00140  -0.00140   2.26052
    R5        2.25936  -0.00028   0.00000  -0.00109  -0.00109   2.25827
    R6        2.91612  -0.01082   0.00000  -0.09871  -0.09871   2.81741
    R7        2.70114  -0.00262   0.00000  -0.00626  -0.00626   2.69488
    R8        1.90408  -0.00062   0.00000  -0.00132  -0.00132   1.90276
    R9        1.90405  -0.00117   0.00000  -0.00248  -0.00248   1.90156
   R10        2.26258  -0.00199   0.00000  -0.00778  -0.00778   2.25479
   R11        2.36425  -0.00088   0.00000  -0.00401  -0.00401   2.36023
    A1        2.11283  -0.00012   0.00000  -0.00121  -0.00121   2.11162
    A2        2.11003  -0.00047   0.00000  -0.00329  -0.00330   2.10673
    A3        1.96566   0.00049   0.00000   0.00236   0.00235   1.96801
    A4        2.04619   0.00047   0.00000   0.00337   0.00237   2.04855
    A5        2.05398   0.00208   0.00000   0.01906   0.01825   2.07223
    A6        1.74546  -0.01560   0.00000  -0.10860  -0.10864   1.63683
    A7        2.09158  -0.00068   0.00000   0.00857   0.00767   2.09925
    A8        1.72250   0.00576   0.00000   0.01919   0.01863   1.74113
    A9        1.64603   0.00543   0.00000   0.01939   0.01989   1.66591
   A10        2.15679   0.00028   0.00000   0.00160   0.00160   2.15840
   A11        2.13433  -0.00040   0.00000  -0.00244  -0.00244   2.13189
   A12        1.98761   0.00011   0.00000   0.00060   0.00060   1.98821
   A13        2.12450   0.00203   0.00000   0.00963   0.00953   2.13404
   A14        2.00172  -0.00194   0.00000  -0.01468  -0.01473   1.98699
   A15        1.96358  -0.00053   0.00000  -0.00715  -0.00718   1.95640
   A16        1.68801  -0.02322   0.00000  -0.09042  -0.09042   1.59759
    D1        2.68447   0.00214   0.00000   0.04041   0.04032   2.72478
    D2       -0.01080  -0.00198   0.00000  -0.03284  -0.03320  -0.04401
    D3       -1.76134  -0.00004   0.00000   0.00077   0.00123  -1.76011
    D4        0.03008   0.00226   0.00000   0.04495   0.04486   0.07493
    D5       -2.66519  -0.00187   0.00000  -0.02830  -0.02866  -2.69386
    D6        1.86746   0.00007   0.00000   0.00532   0.00577   1.87323
    D7       -0.17276   0.00242   0.00000   0.17458   0.17454   0.00179
    D8        1.91834   0.00027   0.00000   0.15360   0.15369   2.07202
    D9       -2.25154   0.00183   0.00000   0.17021   0.17017  -2.08137
   D10        2.83284  -0.00002   0.00000   0.00811   0.00809   2.84093
   D11        0.36818   0.00098   0.00000   0.03016   0.03018   0.39837
   D12       -0.41628  -0.00009   0.00000   0.00531   0.00528  -0.41100
   D13       -2.88093   0.00091   0.00000   0.02735   0.02738  -2.85356
   D14       -1.87799   0.00141   0.00000   0.14033   0.14043  -1.73756
   D15        1.87832   0.00125   0.00000   0.15340   0.15330   2.03162
         Item               Value     Threshold  Converged?
 Maximum Force            0.023217     0.000450     NO 
 RMS     Force            0.004971     0.000300     NO 
 Maximum Displacement     0.734202     0.001800     NO 
 RMS     Displacement     0.264763     0.001200     NO 
 Predicted change in Energy=-3.948260D-03
 GradGradGradGradGradGradGradGradGradGradGradGradGradGradGradGradGradGrad

                          Input orientation:                          
 ---------------------------------------------------------------------
 Center     Atomic      Atomic             Coordinates (Angstroms)
 Number     Number       Type             X           Y           Z
 ---------------------------------------------------------------------
      1          7           0        0.773823   -0.617378   -0.181281
      2          5           0        1.249260    0.776921   -0.117158
      3          7           0       -1.445673   -0.096745   -0.264931
      4          5           0       -0.410216    0.094223    0.696852
      5          1           0       -1.544850    0.461927   -1.096731
      6          1           0        1.104747    1.452751   -1.093527
      7          1           0        2.072453    1.066155    0.699412
      8          1           0        1.160437   -1.327032    0.424689
      9          1           0        0.403445   -0.996998   -1.040857
     10          1           0       -2.089139   -0.868629   -0.212833
     11          1           0       -0.473692   -0.357332    1.799467
     12          1           0        0.082895    1.241697    0.686819
 ---------------------------------------------------------------------
                    Distance matrix (angstroms):
                    1          2          3          4          5
     1  N    0.000000
     2  B    1.474524   0.000000
     3  N    2.281276   2.836863   0.000000
     4  B    1.636900   1.970418   1.426067   0.000000
     5  H    2.716467   2.977555   1.006898   2.153959   0.000000
     6  H    2.286294   1.196214   3.097121   2.710382   2.828800
     7  H    2.301379   1.195028   3.828774   2.666140   4.083638
     8  H    1.010089   2.174421   2.963274   2.135647   3.582411
     9  H    1.010031   2.171500   2.198126   2.207361   2.434633
    10  H    2.874139   3.723157   1.006264   2.138550   1.687574
    11  H    2.355266   2.815767   2.296604   1.193185   3.194765
    12  H    2.164980   1.490907   2.243607   1.248981   2.537448
                    6          7          8          9         10
     6  H    0.000000
     7  H    2.073775   0.000000
     8  H    3.167851   2.575770   0.000000
     9  H    2.548700   3.173441   1.682197   0.000000
    10  H    4.045410   4.679149   3.343100   2.629654   0.000000
    11  H    3.759959   3.117578   2.345359   3.040721   2.630674
    12  H    2.063579   1.997328   2.797888   2.845940   3.159206
                   11         12
    11  H    0.000000
    12  H    2.025998   0.000000
 Stoichiometry    B2H8N2
 Framework group  C1[X(B2H8N2)]
 Deg. of freedom    30
 Full point group                 C1      NOp   1
 Largest Abelian subgroup         C1      NOp   1
 Largest concise Abelian subgroup C1      NOp   1
                         Standard orientation:                         
 ---------------------------------------------------------------------
 Center     Atomic      Atomic             Coordinates (Angstroms)
 Number     Number       Type             X           Y           Z
 ---------------------------------------------------------------------
      1          7           0        0.625674   -0.764545   -0.165084
      2          5           0        1.363746    0.511591   -0.195853
      3          7           0       -1.452912    0.174168   -0.215247
      4          5           0       -0.362973    0.208691    0.703724
      5          1           0       -1.474969    0.697853   -1.074962
      6          1           0        1.314185    1.151424   -1.205350
      7          1           0        2.258856    0.676299    0.578576
      8          1           0        0.891444   -1.503826    0.469825
      9          1           0        0.155324   -1.108355   -0.990146
     10          1           0       -2.230850   -0.453586   -0.099904
     11          1           0       -0.468997   -0.164392    1.832112
     12          1           0        0.341803    1.235813    0.612811
 ---------------------------------------------------------------------
 Rotational constants (GHZ):          14.7279464           5.8116592           5.4950767
 Standard basis: 6-31G(d,p) (6D, 7F)
 There are   100 symmetry adapted cartesian basis functions of A   symmetry.
 There are   100 symmetry adapted basis functions of A   symmetry.
   100 basis functions,   168 primitive gaussians,   100 cartesian basis functions
    16 alpha electrons       16 beta electrons
       nuclear repulsion energy       121.6042342851 Hartrees.
 NAtoms=   12 NActive=   12 NUniq=   12 SFac= 1.00D+00 NAtFMM=   60 NAOKFM=F Big=F
 Integral buffers will be    131072 words long.
 Raffenetti 2 integral format.
 Two-electron integral symmetry is turned on.
 One-electron integrals computed using PRISM.
 NBasis=   100 RedAO= T EigKep=  3.72D-03  NBF=   100
 NBsUse=   100 1.00D-06 EigRej= -1.00D+00 NBFU=   100
 Initial guess from the checkpoint file:  "/scratch/1311821/Gau-26010.chk"
 B after Tr=    -0.000000   -0.000000   -0.000000
         Rot=    0.995293    0.043373   -0.015052    0.085351 Ang=  11.12 deg.
 Initial guess <Sx>= 0.0000 <Sy>= 0.0000 <Sz>= 0.0000 <S**2>= 0.0000 S= 0.0000
 ExpMin= 1.27D-01 ExpMax= 4.17D+03 ExpMxC= 6.27D+02 IAcc=2 IRadAn=         4 AccDes= 0.00D+00
 Harris functional with IExCor=  402 and IRadAn=       4 diagonalized for initial guess.
 HarFok:  IExCor=  402 AccDes= 0.00D+00 IRadAn=         4 IDoV= 1 UseB2=F ITyADJ=14
 ICtDFT=  3500011 ScaDFX=  1.000000  1.000000  1.000000  1.000000
 FoFCou: FMM=F IPFlag=           0 FMFlag=      100000 FMFlg1=           0
         NFxFlg=           0 DoJE=T BraDBF=F KetDBF=T FulRan=T
         wScrn=  0.000000 ICntrl=       500 IOpCl=  0 I1Cent=   200000004 NGrid=           0
         NMat0=    1 NMatS0=      1 NMatT0=    0 NMatD0=    1 NMtDS0=    0 NMtDT0=    0
 Petite list used in FoFCou.
 Keep R1 and R2 ints in memory in canonical form, NReq=29209870.
 Requested convergence on RMS density matrix=1.00D-08 within1024 cycles.
 Requested convergence on MAX density matrix=1.00D-06.
 Requested convergence on             energy=1.00D-06.
 No special actions if energy rises.
 Integral accuracy reduced to 1.0D-05 until final iterations.
 Initial convergence to 1.0D-05 achieved.  Increase integral accuracy.
 SCF Done:  E(UB3LYP) =  -164.063729958     A.U. after   12 cycles
            NFock= 12  Conv=0.54D-08     -V/T= 2.0080
 <Sx>= 0.0000 <Sy>= 0.0000 <Sz>= 0.0000 <S**2>=-0.0000 S=-0.0000
 <L.S>= 0.000000000000E+00
 Annihilation of the first spin contaminant:
 S**2 before annihilation    -0.0000,   after    -0.0000
 Calling FoFJK, ICntrl=      2127 FMM=F ISym2X=0 I1Cent= 0 IOpClX= 1 NMat=1 NMatS=1 NMatT=0.
 ***** Axes restored to original set *****
 -------------------------------------------------------------------
 Center     Atomic                   Forces (Hartrees/Bohr)
 Number     Number              X              Y              Z
 -------------------------------------------------------------------
      1        7           0.043782389   -0.026763713    0.021383749
      2        5          -0.001258177    0.019854606    0.009201991
      3        7          -0.063955936    0.013538284   -0.011755142
      4        5           0.008878461   -0.018524726   -0.019605933
      5        1          -0.003428179    0.001312326    0.001967997
      6        1           0.000518551   -0.001684560    0.000057910
      7        1           0.003266291   -0.002592227   -0.003290995
      8        1           0.013509406   -0.003356940   -0.006039241
      9        1          -0.002793518    0.000823356    0.003687531
     10        1          -0.002670479    0.003361971    0.001129384
     11        1           0.001249508    0.002537122    0.002529299
     12        1           0.002901683    0.011494501    0.000733450
 -------------------------------------------------------------------
 Cartesian Forces:  Max     0.063955936 RMS     0.016042762

 GradGradGradGradGradGradGradGradGradGradGradGradGradGradGradGradGradGrad
 Berny optimization.
 Using GEDIIS/GDIIS optimizer.
 FormGI is forming the generalized inverse of G from B-inverse, IUseBI=4.
 Internal  Forces:  Max     0.142182768 RMS     0.037160727
 Search for a local minimum.
 Step number   2 out of a maximum of   52
 All quantities printed in internal units (Hartrees-Bohrs-Radians)
 Mixed Optimization -- RFO/linear search
 Update second derivatives using D2CorX and points    2    1
 DE=  2.05D-02 DEPred=-3.95D-03 R=-5.20D+00
 Trust test=-5.20D+00 RLast= 4.06D-01 DXMaxT set to 1.50D-01
 ITU= -1  0
 Use linear search instead of GDIIS.
     Eigenvalues ---    0.00227   0.00720   0.01281   0.01781   0.01839
     Eigenvalues ---    0.01872   0.02370   0.05384   0.08829   0.10297
     Eigenvalues ---    0.11681   0.12552   0.14560   0.15623   0.16000
     Eigenvalues ---    0.16000   0.16000   0.16000   0.19327   0.21317
     Eigenvalues ---    0.24825   0.24888   0.24988   0.35321   0.39193
     Eigenvalues ---    0.45142   0.45740   0.46356   0.46378   0.96998
 RFO step:  Lambda=-1.08425128D-02 EMin= 2.26800354D-03
 Quartic linear search produced a step of -0.76134.
 Maximum step size (   0.150) exceeded in Quadratic search.
    -- Step size scaled by   0.722
 Iteration  1 RMS(Cart)=  0.18860510 RMS(Int)=  0.01779131
 Iteration  2 RMS(Cart)=  0.04552352 RMS(Int)=  0.00253724
 Iteration  3 RMS(Cart)=  0.00153097 RMS(Int)=  0.00242918
 Iteration  4 RMS(Cart)=  0.00000222 RMS(Int)=  0.00242918
 Iteration  5 RMS(Cart)=  0.00000002 RMS(Int)=  0.00242918
 Variable       Old X    -DE/DX   Delta X   Delta X   Delta X     New X
                                 (Linear)    (Quad)   (Total)
    R1        2.78645   0.00931  -0.00405   0.01000   0.00595   2.79240
    R2        1.90879   0.00391   0.00177  -0.00113   0.00064   1.90943
    R3        1.90868  -0.00242   0.00560  -0.00876  -0.00316   1.90552
    R4        2.26052  -0.00106   0.00106  -0.00228  -0.00121   2.25930
    R5        2.25827  -0.00063   0.00083  -0.00165  -0.00082   2.25746
    R6        2.81741   0.03541   0.07515  -0.08531  -0.01016   2.80724
    R7        2.69488   0.05427   0.00477   0.01421   0.01898   2.71385
    R8        1.90276  -0.00056   0.00101  -0.00161  -0.00060   1.90216
    R9        1.90156  -0.00081   0.00189  -0.00295  -0.00105   1.90051
   R10        2.25479   0.00131   0.00593  -0.00815  -0.00222   2.25257
   R11        2.36023   0.02140   0.00306   0.01088   0.01393   2.37416
    A1        2.11162  -0.00609   0.00092  -0.01168  -0.01101   2.10061
    A2        2.10673   0.00310   0.00251  -0.00550  -0.00324   2.10349
    A3        1.96801   0.00048  -0.00179  -0.00147  -0.00354   1.96447
    A4        2.04855   0.02637  -0.00180   0.03569   0.03464   2.08320
    A5        2.07223  -0.04244  -0.01390  -0.02949  -0.04275   2.02949
    A6        1.63683   0.09065   0.08271  -0.04166   0.04108   1.67791
    A7        2.09925   0.00409  -0.00584   0.00700   0.00177   2.10102
    A8        1.74113  -0.03678  -0.01418  -0.00712  -0.02160   1.71953
    A9        1.66591  -0.02142  -0.01514   0.01130  -0.00350   1.66241
   A10        2.15840   0.00130  -0.00122   0.00397   0.00263   2.16103
   A11        2.13189   0.00094   0.00186  -0.00140   0.00033   2.13222
   A12        1.98821  -0.00167  -0.00046  -0.00011  -0.00069   1.98752
   A13        2.13404  -0.01237  -0.00726  -0.03670  -0.05169   2.08235
   A14        1.98699  -0.02880   0.01122  -0.07726  -0.07325   1.91374
   A15        1.95640   0.01174   0.00547  -0.03219  -0.03646   1.91993
   A16        1.59759   0.14218   0.06884  -0.01520   0.05363   1.65123
    D1        2.72478  -0.02293  -0.03069  -0.02064  -0.05155   2.67323
    D2       -0.04401   0.00982   0.02528  -0.05967  -0.03439  -0.07840
    D3       -1.76011  -0.01040  -0.00094  -0.04484  -0.04544  -1.80555
    D4        0.07493  -0.01710  -0.03415   0.02413  -0.01031   0.06462
    D5       -2.69386   0.01566   0.02182  -0.01489   0.00685  -2.68701
    D6        1.87323  -0.00457  -0.00439  -0.00007  -0.00421   1.86902
    D7        0.00179  -0.07292  -0.13289   0.12354  -0.00912  -0.00733
    D8        2.07202  -0.03098  -0.11701   0.14938   0.03212   2.10414
    D9       -2.08137  -0.04045  -0.12956   0.15806   0.02853  -2.05284
   D10        2.84093  -0.02276  -0.00616  -0.08300  -0.08640   2.75452
   D11        0.39837   0.01657  -0.02298   0.14616   0.12042   0.51879
   D12       -0.41100  -0.01626  -0.00402  -0.05411  -0.05538  -0.46637
   D13       -2.85356   0.02307  -0.02084   0.17504   0.15145  -2.70211
   D14       -1.73756  -0.08310  -0.10691  -0.21183  -0.31667  -2.05423
   D15        2.03162  -0.04003  -0.11671  -0.00675  -0.12554   1.90608
         Item               Value     Threshold  Converged?
 Maximum Force            0.142183     0.000450     NO 
 RMS     Force            0.037161     0.000300     NO 
 Maximum Displacement     0.648530     0.001800     NO 
 RMS     Displacement     0.224989     0.001200     NO 
 Predicted change in Energy=-1.246290D-02
 GradGradGradGradGradGradGradGradGradGradGradGradGradGradGradGradGradGrad

                          Input orientation:                          
 ---------------------------------------------------------------------
 Center     Atomic      Atomic             Coordinates (Angstroms)
 Number     Number       Type             X           Y           Z
 ---------------------------------------------------------------------
      1          7           0        0.975680   -0.674227   -0.186542
      2          5           0        1.297617    0.765752   -0.106895
      3          7           0       -1.650491   -0.029949   -0.223110
      4          5           0       -0.453513    0.016236    0.569050
      5          1           0       -1.814345    0.555618   -1.025271
      6          1           0        1.219649    1.439152   -1.091701
      7          1           0        1.997591    1.101830    0.800930
      8          1           0        1.394190   -1.327600    0.460691
      9          1           0        0.746632   -1.099567   -1.071646
     10          1           0       -2.376197   -0.706313   -0.057799
     11          1           0       -0.479621   -0.388420    1.689968
     12          1           0        0.026299    1.177049    0.542245
 ---------------------------------------------------------------------
                    Distance matrix (angstroms):
                    1          2          3          4          5
     1  N    0.000000
     2  B    1.477676   0.000000
     3  N    2.704293   3.055812   0.000000
     4  B    1.757910   2.021171   1.436109   0.000000
     5  H    3.162313   3.251443   1.006578   2.164407   0.000000
     6  H    2.311970   1.195571   3.339223   2.753589   3.160722
     7  H    2.274595   1.194595   3.954502   2.690761   4.261950
     8  H    1.010425   2.171083   3.379580   2.287278   4.006157
     9  H    1.008358   2.171116   2.758676   2.318889   3.049655
    10  H    3.354502   3.958067   1.005706   2.147494   1.686460
    11  H    2.391835   2.778381   2.271411   1.192009   3.169419
    12  H    2.204467   1.485530   2.203233   1.256354   2.496248
                    6          7          8          9         10
     6  H    0.000000
     7  H    2.073893   0.000000
     8  H    3.177311   2.526260   0.000000
     9  H    2.582488   3.149220   1.679103   0.000000
    10  H    4.313013   4.810075   3.856248   3.306751   0.000000
    11  H    3.737006   3.024535   2.429887   3.104181   2.598605
    12  H    2.040236   1.989615   2.855003   2.882101   3.111124
                   11         12
    11  H    0.000000
    12  H    2.005969   0.000000
 Stoichiometry    B2H8N2
 Framework group  C1[X(B2H8N2)]
 Deg. of freedom    30
 Full point group                 C1      NOp   1
 Largest Abelian subgroup         C1      NOp   1
 Largest concise Abelian subgroup C1      NOp   1
                         Standard orientation:                         
 ---------------------------------------------------------------------
 Center     Atomic      Atomic             Coordinates (Angstroms)
 Number     Number       Type             X           Y           Z
 ---------------------------------------------------------------------
      1          7           0        0.913756   -0.730233   -0.213533
      2          5           0        1.343879    0.678499   -0.095239
      3          7           0       -1.656969    0.108706   -0.185998
      4          5           0       -0.448502    0.040371    0.586885
      5          1           0       -1.788107    0.730081   -0.966955
      6          1           0        1.302305    1.386833   -1.057489
      7          1           0        2.080210    0.932445    0.810512
      8          1           0        1.291469   -1.433230    0.406214
      9          1           0        0.640613   -1.108949   -1.107263
     10          1           0       -2.428864   -0.516641   -0.029264
     11          1           0       -0.488571   -0.396680    1.695156
     12          1           0        0.116553    1.162483    0.587571
 ---------------------------------------------------------------------
 Rotational constants (GHZ):          15.0740445           4.9466567           4.5498506
 Standard basis: 6-31G(d,p) (6D, 7F)
 There are   100 symmetry adapted cartesian basis functions of A   symmetry.
 There are   100 symmetry adapted basis functions of A   symmetry.
   100 basis functions,   168 primitive gaussians,   100 cartesian basis functions
    16 alpha electrons       16 beta electrons
       nuclear repulsion energy       116.8756569846 Hartrees.
 NAtoms=   12 NActive=   12 NUniq=   12 SFac= 1.00D+00 NAtFMM=   60 NAOKFM=F Big=F
 Integral buffers will be    131072 words long.
 Raffenetti 2 integral format.
 Two-electron integral symmetry is turned on.
 One-electron integrals computed using PRISM.
 NBasis=   100 RedAO= T EigKep=  4.43D-03  NBF=   100
 NBsUse=   100 1.00D-06 EigRej= -1.00D+00 NBFU=   100
 Lowest energy guess from the checkpoint file:  "/scratch/1311821/Gau-26010.chk"
 B after Tr=    -0.000000   -0.000000   -0.000000
         Rot=    0.999622   -0.006086   -0.004940    0.026350 Ang=  -3.15 deg.
 B after Tr=     0.000000    0.000000   -0.000000
         Rot=    0.997118   -0.048128    0.011339   -0.057536 Ang=  -8.70 deg.
 Initial guess <Sx>= 0.0000 <Sy>= 0.0000 <Sz>= 0.0000 <S**2>= 0.0000 S= 0.0000
 Keep R1 and R2 ints in memory in canonical form, NReq=29209870.
 Requested convergence on RMS density matrix=1.00D-08 within1024 cycles.
 Requested convergence on MAX density matrix=1.00D-06.
 Requested convergence on             energy=1.00D-06.
 No special actions if energy rises.
 Integral accuracy reduced to 1.0D-05 until final iterations.
 Initial convergence to 1.0D-05 achieved.  Increase integral accuracy.
 SCF Done:  E(UB3LYP) =  -164.087469342     A.U. after   12 cycles
            NFock= 12  Conv=0.21D-08     -V/T= 2.0096
 <Sx>= 0.0000 <Sy>= 0.0000 <Sz>= 0.0000 <S**2>=-0.0000 S=-0.0000
 <L.S>= 0.000000000000E+00
 Annihilation of the first spin contaminant:
 S**2 before annihilation    -0.0000,   after     0.0000
 Calling FoFJK, ICntrl=      2127 FMM=F ISym2X=0 I1Cent= 0 IOpClX= 1 NMat=1 NMatS=1 NMatT=0.
 ***** Axes restored to original set *****
 -------------------------------------------------------------------
 Center     Atomic                   Forces (Hartrees/Bohr)
 Number     Number              X              Y              Z
 -------------------------------------------------------------------
      1        7          -0.010079630   -0.014016225    0.007954919
      2        5          -0.010185809    0.019775817    0.012432910
      3        7          -0.006200570   -0.000386220   -0.005916643
      4        5           0.006659863   -0.006258689   -0.007096724
      5        1          -0.000599322   -0.000324848    0.000064259
      6        1           0.001941693   -0.003297047   -0.001796872
      7        1           0.004386698   -0.000303282   -0.003062486
      8        1           0.004699175   -0.000667817   -0.002806649
      9        1          -0.000768937   -0.001532500   -0.002401828
     10        1          -0.000067576    0.000279294    0.000130099
     11        1           0.002427152   -0.001191126    0.002039593
     12        1           0.007787262    0.007922644    0.000459422
 -------------------------------------------------------------------
 Cartesian Forces:  Max     0.019775817 RMS     0.006323661

 GradGradGradGradGradGradGradGradGradGradGradGradGradGradGradGradGradGrad
 Berny optimization.
 Using GEDIIS/GDIIS optimizer.
 FormGI is forming the generalized inverse of G from B-inverse, IUseBI=4.
 Internal  Forces:  Max     0.023963971 RMS     0.005973407
 Search for a local minimum.
 Step number   3 out of a maximum of   52
 All quantities printed in internal units (Hartrees-Bohrs-Radians)
 Mixed Optimization -- RFO/linear search
 Update second derivatives using D2CorX and points    2    1    3
 DE= -3.21D-03 DEPred=-1.25D-02 R= 2.58D-01
 Trust test= 2.58D-01 RLast= 4.87D-01 DXMaxT set to 1.50D-01
 ITU=  0 -1  0
 Use linear search instead of GDIIS.
     Eigenvalues ---    0.00351   0.00380   0.01001   0.01607   0.01855
     Eigenvalues ---    0.01948   0.02593   0.06610   0.08417   0.09796
     Eigenvalues ---    0.11799   0.12472   0.13647   0.15518   0.16000
     Eigenvalues ---    0.16000   0.16000   0.16130   0.19153   0.22408
     Eigenvalues ---    0.24877   0.24987   0.25195   0.37688   0.40970
     Eigenvalues ---    0.45726   0.46319   0.46378   0.50500   0.70795
 RFO step:  Lambda=-1.70544526D-02 EMin= 3.51060580D-03
 Quartic linear search produced a step of  0.03579.
 Maximum step size (   0.150) exceeded in Quadratic search.
    -- Step size scaled by   0.272
 Iteration  1 RMS(Cart)=  0.09993592 RMS(Int)=  0.00256466
 Iteration  2 RMS(Cart)=  0.00376564 RMS(Int)=  0.00057733
 Iteration  3 RMS(Cart)=  0.00001275 RMS(Int)=  0.00057729
 Iteration  4 RMS(Cart)=  0.00000001 RMS(Int)=  0.00057729
 Variable       Old X    -DE/DX   Delta X   Delta X   Delta X     New X
                                 (Linear)    (Quad)   (Total)
    R1        2.79240   0.01699   0.00040   0.01193   0.01233   2.80473
    R2        1.90943   0.00058  -0.00006  -0.00177  -0.00183   1.90759
    R3        1.90552   0.00293  -0.00038  -0.00808  -0.00846   1.89706
    R4        2.25930  -0.00050  -0.00009  -0.00205  -0.00214   2.25716
    R5        2.25746   0.00016  -0.00007  -0.00136  -0.00142   2.25603
    R6        2.80724  -0.01306  -0.00390  -0.09468  -0.09857   2.70867
    R7        2.71385   0.00889   0.00045   0.00561   0.00607   2.71992
    R8        1.90216  -0.00014  -0.00007  -0.00160  -0.00166   1.90049
    R9        1.90051  -0.00012  -0.00013  -0.00293  -0.00305   1.89746
   R10        2.25257   0.00227  -0.00036  -0.00750  -0.00786   2.24471
   R11        2.37416   0.00620   0.00035   0.00562   0.00597   2.38014
    A1        2.10061  -0.00140  -0.00044  -0.00665  -0.00719   2.09342
    A2        2.10349   0.00041  -0.00023  -0.00382  -0.00415   2.09933
    A3        1.96447  -0.00030  -0.00004   0.00068   0.00052   1.96499
    A4        2.08320   0.00030   0.00132   0.01719   0.01817   2.10137
    A5        2.02949  -0.00146  -0.00088  -0.00735  -0.00835   2.02114
    A6        1.67791  -0.00913  -0.00242  -0.07466  -0.07709   1.60082
    A7        2.10102  -0.00006   0.00034   0.00427   0.00421   2.10524
    A8        1.71953   0.00325  -0.00011   0.01197   0.01224   1.73177
    A9        1.66241   0.00876   0.00059   0.02499   0.02507   1.68748
   A10        2.16103   0.00082   0.00015   0.00296   0.00310   2.16412
   A11        2.13222  -0.00036  -0.00008  -0.00226  -0.00236   2.12987
   A12        1.98752  -0.00045  -0.00000  -0.00014  -0.00016   1.98736
   A13        2.08235   0.00190  -0.00151  -0.00878  -0.01218   2.07017
   A14        1.91374   0.00123  -0.00315  -0.04211  -0.04676   1.86698
   A15        1.91993  -0.00129  -0.00156  -0.01804  -0.02161   1.89832
   A16        1.65123  -0.02396  -0.00132  -0.06342  -0.06474   1.58649
    D1        2.67323  -0.00351  -0.00040   0.00244   0.00228   2.67551
    D2       -0.07840  -0.00022  -0.00242  -0.03611  -0.03833  -0.11673
    D3       -1.80555  -0.00513  -0.00158  -0.02440  -0.02636  -1.83192
    D4        0.06462  -0.00063   0.00124   0.02331   0.02475   0.08937
    D5       -2.68701   0.00266  -0.00078  -0.01524  -0.01586  -2.70286
    D6        1.86902  -0.00226   0.00006  -0.00353  -0.00389   1.86513
    D7       -0.00733  -0.00542   0.00592  -0.04486  -0.03926  -0.04659
    D8        2.10414  -0.00660   0.00665  -0.04238  -0.03570   2.06844
    D9       -2.05284  -0.00396   0.00711  -0.02974  -0.02234  -2.07518
   D10        2.75452   0.00046  -0.00280  -0.02548  -0.02776   2.72676
   D11        0.51879  -0.00059   0.00539   0.05043   0.05531   0.57409
   D12       -0.46637   0.00077  -0.00179  -0.01642  -0.01769  -0.48406
   D13       -2.70211  -0.00028   0.00640   0.05949   0.06538  -2.63673
   D14       -2.05423  -0.00044  -0.00631  -0.07815  -0.08355  -2.13778
   D15        1.90608  -0.00295   0.00099  -0.01628  -0.01620   1.88988
         Item               Value     Threshold  Converged?
 Maximum Force            0.023964     0.000450     NO 
 RMS     Force            0.005973     0.000300     NO 
 Maximum Displacement     0.239170     0.001800     NO 
 RMS     Displacement     0.099707     0.001200     NO 
 Predicted change in Energy=-4.427823D-03
 GradGradGradGradGradGradGradGradGradGradGradGradGradGradGradGradGradGrad

                          Input orientation:                          
 ---------------------------------------------------------------------
 Center     Atomic      Atomic             Coordinates (Angstroms)
 Number     Number       Type             X           Y           Z
 ---------------------------------------------------------------------
      1          7           0        0.887801   -0.645514   -0.116917
      2          5           0        1.275773    0.787002   -0.101819
      3          7           0       -1.600126   -0.033471   -0.249289
      4          5           0       -0.361704   -0.033288    0.484164
      5          1           0       -1.805048    0.595381   -1.006902
      6          1           0        1.193097    1.446081   -1.094523
      7          1           0        1.992080    1.121971    0.792586
      8          1           0        1.306769   -1.287957    0.539386
      9          1           0        0.626229   -1.090089   -0.978145
     10          1           0       -2.319760   -0.712717   -0.079136
     11          1           0       -0.353057   -0.477120    1.585946
     12          1           0        0.041437    1.159281    0.524570
 ---------------------------------------------------------------------
                    Distance matrix (angstroms):
                    1          2          3          4          5
     1  N    0.000000
     2  B    1.484201   0.000000
     3  N    2.565522   2.994281   0.000000
     4  B    1.515712   1.922910   1.439320   0.000000
     5  H    3.095696   3.216730   1.005697   2.168351   0.000000
     6  H    2.328882   1.194438   3.271940   2.664243   3.117730
     7  H    2.273902   1.193842   3.914651   2.640084   4.234812
     8  H    1.009456   2.171995   3.262787   2.088311   3.952388
     9  H    1.003883   2.171020   2.569889   2.056985   2.958504
    10  H    3.208488   3.895835   1.004092   2.147770   1.684280
    11  H    2.113724   2.664516   2.262762   1.187849   3.159335
    12  H    2.094069   1.433367   2.171692   1.259515   2.464325
                    6          7          8          9         10
     6  H    0.000000
     7  H    2.074753   0.000000
     8  H    3.187091   2.518236   0.000000
     9  H    2.601354   3.145512   1.674869   0.000000
    10  H    4.246362   4.766335   3.723599   3.103140   0.000000
    11  H    3.643379   2.947233   2.123150   2.812347   2.587649
    12  H    2.007496   1.969323   2.755043   2.767635   3.073124
                   11         12
    11  H    0.000000
    12  H    1.989963   0.000000
 Stoichiometry    B2H8N2
 Framework group  C1[X(B2H8N2)]
 Deg. of freedom    30
 Full point group                 C1      NOp   1
 Largest Abelian subgroup         C1      NOp   1
 Largest concise Abelian subgroup C1      NOp   1
                         Standard orientation:                         
 ---------------------------------------------------------------------
 Center     Atomic      Atomic             Coordinates (Angstroms)
 Number     Number       Type             X           Y           Z
 ---------------------------------------------------------------------
      1          7           0        0.797256   -0.688157   -0.287973
      2          5           0        1.339596    0.670414   -0.036969
      3          7           0       -1.612430    0.175499   -0.116459
      4          5           0       -0.342416   -0.084992    0.508722
      5          1           0       -1.789392    0.955033   -0.726734
      6          1           0        1.274143    1.512830   -0.881204
      7          1           0        2.136981    0.756412    0.847363
      8          1           0        1.179511   -1.482186    0.204368
      9          1           0        0.441053   -0.931529   -1.194433
     10          1           0       -2.391324   -0.450978   -0.021321
     11          1           0       -0.320838   -0.731006    1.505309
     12          1           0        0.190185    1.032921    0.738908
 ---------------------------------------------------------------------
 Rotational constants (GHZ):          16.1303723           5.3864439           4.8490411
 Standard basis: 6-31G(d,p) (6D, 7F)
 There are   100 symmetry adapted cartesian basis functions of A   symmetry.
 There are   100 symmetry adapted basis functions of A   symmetry.
   100 basis functions,   168 primitive gaussians,   100 cartesian basis functions
    16 alpha electrons       16 beta electrons
       nuclear repulsion energy       120.5898617876 Hartrees.
 NAtoms=   12 NActive=   12 NUniq=   12 SFac= 1.00D+00 NAtFMM=   60 NAOKFM=F Big=F
 Integral buffers will be    131072 words long.
 Raffenetti 2 integral format.
 Two-electron integral symmetry is turned on.
 One-electron integrals computed using PRISM.
 NBasis=   100 RedAO= T EigKep=  3.60D-03  NBF=   100
 NBsUse=   100 1.00D-06 EigRej= -1.00D+00 NBFU=   100
 Initial guess from the checkpoint file:  "/scratch/1311821/Gau-26010.chk"
 B after Tr=     0.000000   -0.000000    0.000000
         Rot=    0.996806   -0.076590   -0.017464    0.014401 Ang=  -9.16 deg.
 Initial guess <Sx>= 0.0000 <Sy>= 0.0000 <Sz>= 0.0000 <S**2>=-0.0000 S=-0.0000
 ExpMin= 1.27D-01 ExpMax= 4.17D+03 ExpMxC= 6.27D+02 IAcc=2 IRadAn=         4 AccDes= 0.00D+00
 Harris functional with IExCor=  402 and IRadAn=       4 diagonalized for initial guess.
 HarFok:  IExCor=  402 AccDes= 0.00D+00 IRadAn=         4 IDoV= 1 UseB2=F ITyADJ=14
 ICtDFT=  3500011 ScaDFX=  1.000000  1.000000  1.000000  1.000000
 FoFCou: FMM=F IPFlag=           0 FMFlag=      100000 FMFlg1=           0
         NFxFlg=           0 DoJE=T BraDBF=F KetDBF=T FulRan=T
         wScrn=  0.000000 ICntrl=       500 IOpCl=  0 I1Cent=   200000004 NGrid=           0
         NMat0=    1 NMatS0=      1 NMatT0=    0 NMatD0=    1 NMtDS0=    0 NMtDT0=    0
 Petite list used in FoFCou.
 Keep R1 and R2 ints in memory in canonical form, NReq=29209870.
 Requested convergence on RMS density matrix=1.00D-08 within1024 cycles.
 Requested convergence on MAX density matrix=1.00D-06.
 Requested convergence on             energy=1.00D-06.
 No special actions if energy rises.
 Integral accuracy reduced to 1.0D-05 until final iterations.
 Initial convergence to 1.0D-05 achieved.  Increase integral accuracy.
 SCF Done:  E(UB3LYP) =  -164.079843905     A.U. after   12 cycles
            NFock= 12  Conv=0.33D-08     -V/T= 2.0079
 <Sx>= 0.0000 <Sy>= 0.0000 <Sz>= 0.0000 <S**2>= 0.0000 S= 0.0000
 <L.S>= 0.000000000000E+00
 Annihilation of the first spin contaminant:
 S**2 before annihilation    -0.0000,   after    -0.0000
 Calling FoFJK, ICntrl=      2127 FMM=F ISym2X=0 I1Cent= 0 IOpClX= 1 NMat=1 NMatS=1 NMatT=0.
 ***** Axes restored to original set *****
 -------------------------------------------------------------------
 Center     Atomic                   Forces (Hartrees/Bohr)
 Number     Number              X              Y              Z
 -------------------------------------------------------------------
      1        7           0.024303556   -0.038287023   -0.021868067
      2        5          -0.011064874    0.031792743    0.015158550
      3        7          -0.011582464   -0.001516646   -0.013624350
      4        5          -0.022756614    0.000996483    0.026914185
      5        1          -0.000846962   -0.000140085   -0.000561447
      6        1           0.003719137   -0.005762915   -0.003280455
      7        1           0.005432368   -0.001129183   -0.004017015
      8        1           0.006967042   -0.002049279   -0.004552255
      9        1           0.005095862   -0.005416537   -0.010548059
     10        1          -0.001612322    0.000254950    0.000910516
     11        1          -0.008980124    0.005651745    0.013249083
     12        1           0.011325395    0.015605746    0.002219314
 -------------------------------------------------------------------
 Cartesian Forces:  Max     0.038287023 RMS     0.013413534

 GradGradGradGradGradGradGradGradGradGradGradGradGradGradGradGradGradGrad
 Berny optimization.
 Using GEDIIS/GDIIS optimizer.
 FormGI is forming the generalized inverse of G from B-inverse, IUseBI=4.
 Internal  Forces:  Max     0.135782002 RMS     0.032874474
 Search for a local minimum.
 Step number   4 out of a maximum of   52
 All quantities printed in internal units (Hartrees-Bohrs-Radians)
 Mixed Optimization -- RFO/linear search
 Update second derivatives using D2CorX and points    2    1    4    3
 DE=  7.63D-03 DEPred=-4.43D-03 R=-1.72D+00
 Trust test=-1.72D+00 RLast= 2.15D-01 DXMaxT set to 7.50D-02
 ITU= -1  0 -1  0
 Use linear search instead of GDIIS.
     Eigenvalues ---    0.00412   0.00497   0.01431   0.01826   0.01872
     Eigenvalues ---    0.02543   0.04734   0.06951   0.09311   0.10545
     Eigenvalues ---    0.11843   0.13032   0.15046   0.15969   0.16000
     Eigenvalues ---    0.16000   0.16096   0.16822   0.20005   0.22242
     Eigenvalues ---    0.24881   0.24986   0.25159   0.36335   0.42579
     Eigenvalues ---    0.45722   0.46290   0.46378   0.47661   1.83791
 RFO step:  Lambda=-1.48129187D-02 EMin= 4.12008169D-03
 Quartic linear search produced a step of -0.71418.
 Maximum step size (   0.075) exceeded in Quadratic search.
    -- Step size scaled by   0.209
 Iteration  1 RMS(Cart)=  0.08598856 RMS(Int)=  0.00229914
 Iteration  2 RMS(Cart)=  0.00300919 RMS(Int)=  0.00031283
 Iteration  3 RMS(Cart)=  0.00000545 RMS(Int)=  0.00031281
 Iteration  4 RMS(Cart)=  0.00000000 RMS(Int)=  0.00031281
 Variable       Old X    -DE/DX   Delta X   Delta X   Delta X     New X
                                 (Linear)    (Quad)   (Total)
    R1        2.80473   0.03503  -0.00881   0.01472   0.00591   2.81065
    R2        1.90759   0.00124   0.00131  -0.00040   0.00091   1.90851
    R3        1.89706   0.01012   0.00604  -0.00221   0.00383   1.90089
    R4        2.25716  -0.00071   0.00153  -0.00142   0.00011   2.25727
    R5        2.25603  -0.00007   0.00102  -0.00071   0.00031   2.25634
    R6        2.70867   0.04780   0.07040  -0.04577   0.02463   2.73330
    R7        2.71992   0.01885  -0.00433   0.00933   0.00499   2.72491
    R8        1.90049   0.00051   0.00119  -0.00072   0.00046   1.90096
    R9        1.89746   0.00114   0.00218  -0.00127   0.00091   1.89837
   R10        2.24471   0.01011   0.00561  -0.00110   0.00451   2.24922
   R11        2.38014   0.00882  -0.00427   0.00889   0.00462   2.38476
    A1        2.09342  -0.00123   0.00513  -0.00969  -0.00461   2.08881
    A2        2.09933  -0.00273   0.00297  -0.00680  -0.00388   2.09545
    A3        1.96499  -0.00036  -0.00037  -0.00469  -0.00513   1.95986
    A4        2.10137  -0.02299  -0.01298   0.00467  -0.00832   2.09305
    A5        2.02114   0.00129   0.00597  -0.01017  -0.00443   2.01670
    A6        1.60082   0.12557   0.05505   0.00336   0.05845   1.65927
    A7        2.10524   0.00574  -0.00301   0.00190  -0.00110   2.10413
    A8        1.73177  -0.04185  -0.00874  -0.00472  -0.01363   1.71814
    A9        1.68748  -0.03463  -0.01790   0.01150  -0.00608   1.68140
   A10        2.16412   0.00090  -0.00221   0.00256   0.00035   2.16447
   A11        2.12987  -0.00006   0.00168  -0.00128   0.00041   2.13028
   A12        1.98736  -0.00078   0.00012  -0.00057  -0.00045   1.98691
   A13        2.07017  -0.00145   0.00870  -0.01887  -0.00916   2.06101
   A14        1.86698   0.00475   0.03340  -0.03719  -0.00302   1.86396
   A15        1.89832  -0.00847   0.01544  -0.02734  -0.01086   1.88745
   A16        1.58649   0.13578   0.04623  -0.00248   0.04375   1.63024
    D1        2.67551  -0.02813  -0.00163  -0.03998  -0.04167   2.63384
    D2       -0.11673   0.01885   0.02738  -0.02930  -0.00208  -0.11881
    D3       -1.83192  -0.00455   0.01883  -0.04276  -0.02368  -1.85559
    D4        0.08937  -0.01925  -0.01768   0.00455  -0.01321   0.07616
    D5       -2.70286   0.02773   0.01132   0.01523   0.02638  -2.67649
    D6        1.86513   0.00433   0.00278   0.00177   0.00478   1.86991
    D7       -0.04659   0.01463   0.02804  -0.00340   0.02494  -0.02164
    D8        2.06844   0.01168   0.02549   0.00144   0.02692   2.09536
    D9       -2.07518  -0.00177   0.01595   0.00535   0.02102  -2.05415
   D10        2.72676  -0.00413   0.01983  -0.02380  -0.00424   2.72252
   D11        0.57409   0.00430  -0.03950   0.05852   0.01929   0.59338
   D12       -0.48406  -0.00304   0.01264  -0.01053   0.00184  -0.48222
   D13       -2.63673   0.00539  -0.04669   0.07179   0.02537  -2.61136
   D14       -2.13778   0.01592   0.05967  -0.00452   0.05462  -2.08317
   D15        1.88988   0.02016   0.01157   0.06303   0.07513   1.96500
         Item               Value     Threshold  Converged?
 Maximum Force            0.135782     0.000450     NO 
 RMS     Force            0.032874     0.000300     NO 
 Maximum Displacement     0.226391     0.001800     NO 
 RMS     Displacement     0.086666     0.001200     NO 
 Predicted change in Energy=-5.168148D-03
 GradGradGradGradGradGradGradGradGradGradGradGradGradGradGradGradGradGrad

                          Input orientation:                          
 ---------------------------------------------------------------------
 Center     Atomic      Atomic             Coordinates (Angstroms)
 Number     Number       Type             X           Y           Z
 ---------------------------------------------------------------------
      1          7           0        0.953907   -0.676653   -0.163113
      2          5           0        1.271546    0.775070   -0.101831
      3          7           0       -1.626487   -0.026163   -0.235197
      4          5           0       -0.412440   -0.031234    0.542824
      5          1           0       -1.777003    0.558995   -1.039470
      6          1           0        1.174427    1.448246   -1.083781
      7          1           0        1.986694    1.108341    0.794352
      8          1           0        1.419680   -1.317355    0.463411
      9          1           0        0.721260   -1.104836   -1.043106
     10          1           0       -2.384659   -0.656985   -0.044400
     11          1           0       -0.472859   -0.398694    1.673304
     12          1           0        0.029423    1.150827    0.536928
 ---------------------------------------------------------------------
                    Distance matrix (angstroms):
                    1          2          3          4          5
     1  N    0.000000
     2  B    1.487330   0.000000
     3  N    2.662099   3.009711   0.000000
     4  B    1.667878   1.975225   1.441961   0.000000
     5  H    3.122932   3.196797   1.005943   2.171188   0.000000
     6  H    2.326254   1.194497   3.277056   2.711614   3.082802
     7  H    2.273674   1.194006   3.924557   2.667910   4.222571
     8  H    1.009938   2.172484   3.381474   2.239884   3.999766
     9  H    1.005910   2.173215   2.707060   2.225550   3.001611
    10  H    3.340734   3.927075   1.004572   2.150824   1.684642
[...]
   A12        1.98493   0.00000   0.00000   0.00005   0.00005   1.98498
   A13        2.12446  -0.00000   0.00000   0.00006   0.00006   2.12452
   A14        1.98557  -0.00000   0.00000  -0.00032  -0.00032   1.98525
   A15        1.64371  -0.00001   0.00000   0.00009   0.00009   1.64380
   A16        1.26830   0.00011   0.00000  -0.00004  -0.00004   1.26826
    D1        2.86609  -0.00001   0.00000  -0.00019  -0.00019   2.86590
    D2        0.76500  -0.00000   0.00000  -0.00010  -0.00010   0.76489
    D3       -1.33165   0.00001   0.00000  -0.00008  -0.00008  -1.33173
    D4        0.84812  -0.00001   0.00000  -0.00023  -0.00023   0.84789
    D5       -1.25298  -0.00000   0.00000  -0.00014  -0.00014  -1.25312
    D6        2.93356   0.00001   0.00000  -0.00012  -0.00012   2.93344
    D7       -0.40853  -0.00005   0.00000  -0.00001  -0.00001  -0.40854
    D8        1.56896  -0.00001   0.00000   0.00008   0.00008   1.56903
    D9       -2.40196  -0.00003   0.00000  -0.00010  -0.00010  -2.40207
   D10        2.98523  -0.00001   0.00000  -0.00031  -0.00031   2.98492
   D11        1.03998   0.00000   0.00000  -0.00020  -0.00020   1.03977
   D12        0.10817  -0.00001   0.00000  -0.00011  -0.00011   0.10807
   D13       -1.83708   0.00001   0.00000   0.00000   0.00000  -1.83708
   D14       -1.43783  -0.00001   0.00000  -0.00024  -0.00024  -1.43806
   D15        2.62075  -0.00001   0.00000  -0.00022  -0.00022   2.62053
         Item               Value     Threshold  Converged?
 Maximum Force            0.000112     0.000450     YES
 RMS     Force            0.000023     0.000300     YES
 Maximum Displacement     0.000771     0.001800     YES
 RMS     Displacement     0.000252     0.001200     YES
 Predicted change in Energy=-1.150741D-08
 Optimization completed.
    -- Stationary point found.
                           ----------------------------
                           !   Optimized Parameters   !
                           ! (Angstroms and Degrees)  !
 --------------------------                            --------------------------
 ! Name  Definition              Value          Derivative Info.                !
 --------------------------------------------------------------------------------
 ! R1    R(1,2)                  1.6995         -DE/DX =    0.0                 !
 ! R2    R(1,8)                  1.0159         -DE/DX =    0.0                 !
 ! R3    R(1,9)                  1.017          -DE/DX =    0.0                 !
 ! R4    R(2,6)                  1.2111         -DE/DX =    0.0                 !
 ! R5    R(2,7)                  1.2086         -DE/DX =    0.0                 !
 ! R6    R(2,12)                 1.211          -DE/DX =    0.0                 !
 ! R7    R(3,4)                  1.3883         -DE/DX =    0.0                 !
 ! R8    R(3,5)                  1.0103         -DE/DX =    0.0                 !
 ! R9    R(3,10)                 1.0078         -DE/DX =    0.0                 !
 ! R10   R(4,11)                 1.1896         -DE/DX =    0.0                 !
 ! R11   R(4,12)                 2.6494         -DE/DX =    0.0                 !
 ! A1    A(2,1,8)              107.5443         -DE/DX =    0.0                 !
 ! A2    A(2,1,9)              106.9045         -DE/DX =    0.0                 !
 ! A3    A(8,1,9)              107.8689         -DE/DX =    0.0                 !
 ! A4    A(1,2,6)              104.2518         -DE/DX =    0.0                 !
 ! A5    A(1,2,7)              104.8912         -DE/DX =    0.0                 !
 ! A6    A(1,2,12)             105.3044         -DE/DX =    0.0                 !
 ! A7    A(6,2,7)              114.2358         -DE/DX =    0.0                 !
 ! A8    A(6,2,12)             113.2773         -DE/DX =    0.0                 !
 ! A9    A(7,2,12)             113.5818         -DE/DX =    0.0                 !
 ! A10   A(4,3,5)              123.0341         -DE/DX =    0.0                 !
 ! A11   A(4,3,10)             121.6747         -DE/DX =    0.0                 !
 ! A12   A(5,3,10)             113.7283         -DE/DX =    0.0                 !
 ! A13   A(3,4,11)             121.7226         -DE/DX =    0.0                 !
 ! A14   A(3,4,12)             113.7647         -DE/DX =    0.0                 !
 ! A15   A(11,4,12)             94.1779         -DE/DX =    0.0                 !
 ! A16   A(2,12,4)              72.6684         -DE/DX =    0.0001              !
 ! D1    D(8,1,2,6)            164.215          -DE/DX =    0.0                 !
 ! D2    D(8,1,2,7)             43.8311         -DE/DX =    0.0                 !
 ! D3    D(8,1,2,12)           -76.2979         -DE/DX =    0.0                 !
 ! D4    D(9,1,2,6)             48.5935         -DE/DX =    0.0                 !
 ! D5    D(9,1,2,7)            -71.7903         -DE/DX =    0.0                 !
 ! D6    D(9,1,2,12)           168.0807         -DE/DX =    0.0                 !
 ! D7    D(1,2,12,4)           -23.4073         -DE/DX =    0.0                 !
 ! D8    D(6,2,12,4)            89.8946         -DE/DX =    0.0                 !
 ! D9    D(7,2,12,4)          -137.6224         -DE/DX =    0.0                 !
 ! D10   D(5,3,4,11)           171.0412         -DE/DX =    0.0                 !
 ! D11   D(5,3,4,12)            59.5863         -DE/DX =    0.0                 !
 ! D12   D(10,3,4,11)            6.198          -DE/DX =    0.0                 !
 ! D13   D(10,3,4,12)         -105.257          -DE/DX =    0.0                 !
 ! D14   D(3,4,12,2)           -82.3814         -DE/DX =    0.0                 !
 ! D15   D(11,4,12,2)          150.1579         -DE/DX =    0.0                 !
 --------------------------------------------------------------------------------
 GradGradGradGradGradGradGradGradGradGradGradGradGradGradGradGradGradGrad


 ----------------------------------------------------------------------

 Electric dipole moment (input orientation):
 (Debye = 10**-18 statcoulomb cm , SI units = C m)
                  (au)            (Debye)         (10**-30 SI)
   Tot        0.196715D+01      0.499999D+01      0.166782D+02
   x         -0.105016D+01     -0.266925D+01     -0.890367D+01
   y         -0.159676D+01     -0.405855D+01     -0.135379D+02
   z         -0.466043D+00     -0.118456D+01     -0.395128D+01

 Dipole polarizability, Alpha (input orientation).
 (esu units = cm**3 , SI units = C**2 m**2 J**-1)
 Alpha(0;0):
               (au)            (10**-24 esu)      (10**-40 SI)
   iso        0.411522D+02      0.609812D+01      0.678508D+01
   aniso      0.151983D+02      0.225215D+01      0.250586D+01
   xx         0.491735D+02      0.728677D+01      0.810762D+01
   yx         0.221974D+01      0.328932D+00      0.365986D+00
   yy         0.335229D+02      0.496757D+01      0.552717D+01
   zx         0.183011D+01      0.271195D+00      0.301745D+00
   zy        -0.271441D+01     -0.402234D+00     -0.447546D+00
   zz         0.407601D+02      0.604003D+01      0.672044D+01

 ----------------------------------------------------------------------

 Dipole orientation:
     7          1.41807040          1.05459733          0.07204744
     5          1.07085277         -0.04730686         -2.92446099
     7         -1.86326371         -1.47819803          2.31552629
     5         -1.10613048          0.82586673          1.31534971
     1         -0.90914565         -3.10528738          2.01956341
     1          0.95878068         -2.32002405         -2.67957860
     1          2.92561516          0.68539269         -4.03788575
     1          2.01615708          2.87499726         -0.04643840
     1          2.82122365          0.02472191          0.88712771
     1         -3.61101215         -1.73335147          3.02769275
     1         -2.40908740          2.65349538          1.43896475
     1         -0.87895579          0.87745411         -3.68594827

 Electric dipole moment (dipole orientation):
 (Debye = 10**-18 statcoulomb cm , SI units = C m)
                  (au)            (Debye)         (10**-30 SI)
   Tot        0.196715D+01      0.499999D+01      0.166782D+02
   x          0.000000D+00      0.000000D+00      0.000000D+00
   y          0.000000D+00      0.000000D+00      0.000000D+00
   z          0.196715D+01      0.499999D+01      0.166782D+02

 Dipole polarizability, Alpha (dipole orientation).
 (esu units = cm**3 , SI units = C**2 m**2 J**-1)
 Alpha(0;0):
               (au)            (10**-24 esu)      (10**-40 SI)
   iso        0.411522D+02      0.609812D+01      0.678508D+01
   aniso      0.151983D+02      0.225215D+01      0.250586D+01
   xx         0.411388D+02      0.609614D+01      0.678287D+01
   yx         0.908390D+00      0.134610D+00      0.149773D+00
   yy         0.425855D+02      0.631053D+01      0.702141D+01
   zx        -0.769981D+01     -0.114099D+01     -0.126953D+01
   zy        -0.385331D+01     -0.571002D+00     -0.635326D+00
   zz         0.397322D+02      0.588770D+01      0.655095D+01

 ----------------------------------------------------------------------
 1\1\GINC-MNODE009\Freq\UB3LYP\6-31G(d,p)\B2H8N2\MARIAHARRIS\03-Jul-202
 0\0\\#N Geom=AllCheck Guess=TCheck SCRF=Check GenChk UB3LYP/6-31G(d,p)
  Freq\\something title\\0,1\N,0.7526654995,-0.5546402446,0.0433505224\
 B,1.2534999865,1.0693447208,0.0437987736\N,-1.686995345,-0.2836268317,
 -0.3988634359\B,-0.6689533828,-0.5641639163,0.5023218511\H,-1.51646548
 94,0.0689918811,-1.3301974263\H,0.7173424023,1.5469708022,-0.931462020
 9\H,2.4592300003,1.0225574805,-0.0258631655\H,1.3671903952,-1.06480367
 26,0.6711771242\H,0.9029096704,-0.9101931574,-0.897600529\H,-2.6472559
 848,-0.2024183246,-0.1040030874\H,-0.8956813138,-0.8276743782,1.639950
 0377\H,0.8460035616,1.5292156406,1.087311356\\Version=EM64L-G16RevA.03
 \State=1-A\HF=-164.10634\S2=0.\S2-1=0.\S2A=0.\RMSD=3.127e-09\RMSF=1.12
 3e-05\ZeroPoint=0.1007124\Thermal=0.1068178\Dipole=-1.0501645,-1.59675
 57,-0.4660432\DipoleDeriv=-0.8306782,-0.2012084,0.048781,-0.4733469,-0
 .8317579,0.0097625,0.1604086,-0.0068804,-0.2719002,0.3822589,0.0624012
 ,-0.0035374,0.282989,0.7630168,-0.0059903,-0.0038081,-0.0179519,0.3824
 598,-0.8633343,-0.0365318,-0.2340905,-0.0302432,-0.6129837,-0.0753804,
 -0.4356774,-0.0628928,-0.6021666,1.4776468,0.136241,0.1173835,0.070388
 6,0.4716566,-0.0857269,0.1365914,-0.1023455,0.7763775,0.1987152,0.0223
 453,0.0328307,0.0502067,0.2838684,0.080493,0.0659021,0.0583471,0.17204
 1,-0.195159,0.0301839,-0.130409,-0.0321126,-0.2093161,0.0313705,-0.094
 9282,0.1150039,-0.3107297,-0.4293643,-0.0410074,0.0138044,0.0187193,-0
 .1930486,-0.0002605,0.0463386,0.0214891,-0.1032884,0.1972526,0.013415,
 -0.0063684,0.0406596,0.1737788,0.0282443,0.0049736,0.0087958,0.1782825
 ,0.1882087,0.008666,-0.0053075,0.0334879,0.1768527,-0.0280239,-0.00262
 71,-0.0081649,0.1297635,0.1905823,0.0157277,0.030395,0.0634523,0.28567
 52,0.0359382,-0.0014838,0.0304598,0.186972,-0.1536777,-0.0219575,0.029
 3874,-0.0060733,-0.1141912,0.0467929,0.0352976,0.0521579,-0.2259983,-0
 .1624509,0.011725,0.1071307,-0.0181273,-0.1935511,-0.0372194,0.0890125
 ,-0.0880182,-0.3118132\Polar=49.1735312,2.2197438,33.5228568,1.8301129
 ,-2.7144091,40.7601328\Quadrupole=1.5761191,-2.6814178,1.1052987,-5.23
 37142,1.0157545,-0.2424808\PG=C01 [X(B2H8N2)]\NImag=0\\0.53928785,-0.1
 6946517,0.31579126,0.04412655,0.00765509,0.71125705,-0.04179332,-0.007
 83990,-0.00111862,0.37292433,0.02222619,-0.03293428,-0.01034944,-0.059
 51875,0.19252729,0.00124465,0.00299132,-0.05004398,0.00131077,0.000375
 31,0.38713312,-0.03619443,-0.00289867,-0.02026247,-0.00251982,0.008253
 76,-0.00040927,0.78724203,0.00274135,0.00857610,0.00040145,-0.00091051
 ,-0.00413064,0.00044710,-0.08494114,0.12921174,0.00243299,-0.00824159,
 0.01349457,-0.00151569,0.00274478,-0.00158059,-0.01284904,-0.21574148,
 0.70442171,-0.20357451,0.03551538,0.05005416,-0.00774549,-0.02898617,0
 .00203960,-0.24991718,0.05942455,-0.14380994,0.52991226,-0.00888138,-0
 .04709379,0.01018692,-0.01033427,0.00723904,0.00727095,0.05270754,-0.0
 5518534,0.05918757,-0.05785884,0.15409016,0.04463478,0.00131980,-0.097
 59579,0.00234247,0.00824809,0.00364605,-0.14604283,0.06373322,-0.22876
 856,0.06598625,-0.11164076,0.55373767,0.00025765,-0.00183046,0.0009096
 4,-0.00080265,0.00096726,-0.00129052,-0.07650469,-0.01212952,0.0545157
 4,0.01090328,0.00710753,-0.01954166,0.06982172,-0.00138924,-0.00373453
 ,-0.00119458,-0.00041803,0.00172424,-0.00100132,-0.01699693,-0.0688031
 1,0.15101269,-0.00420495,-0.00007999,0.00231643,0.01784488,0.06711787,
 0.00114175,-0.00072909,0.00152945,0.00004232,-0.00017315,-0.00029513,0
 .06766734,0.13825778,-0.38690556,0.00435288,0.00565862,-0.01527081,-0.
 06801056,-0.14723393,0.40641745,0.00338852,-0.00247687,0.00410817,-0.0
 6907797,0.03027392,-0.06146192,0.00016395,-0.00107634,0.00076274,-0.00
 166412,-0.00019890,0.00002406,0.00058777,0.00051427,0.00036413,0.06925
 758,0.00566947,-0.01808600,0.01842642,0.02719047,-0.05443756,0.0467912
 4,-0.00104287,0.00059984,-0.00045724,0.00423740,-0.00112523,-0.0003968
 4,-0.00013514,-0.00050176,0.00009869,-0.03123278,0.06703884,0.00211997
 ,0.00153000,0.00057324,-0.05928375,0.05253708,-0.14387573,0.00060275,-
 0.00106693,0.00119491,-0.00397221,-0.00034562,-0.00201377,0.00096497,0
 .00081721,0.00025434,0.06668317,-0.06003327,0.15278370,-0.00752805,-0.
 00521097,0.00087576,-0.20384449,0.00899778,0.00924344,-0.00128076,-0.0
 0074586,-0.00040678,0.00269519,0.00051770,-0.00085351,0.00028119,0.000
 33129,0.00039975,-0.00695693,0.00090931,-0.00037449,0.22243485,-0.0289
 4768,-0.01149026,0.00363732,0.01510560,-0.03121423,-0.00048448,-0.0019
 4136,0.00142927,-0.00075988,0.00416545,-0.00489623,-0.00116899,-0.0003
 2145,-0.00064172,-0.00021462,0.00872858,0.00235823,-0.00062517,-0.0057
 0053,0.03660597,-0.00025790,0.00129436,0.00187315,0.01013299,0.0002195
 3,-0.03607280,0.00045585,-0.00025975,0.00115552,-0.00147470,-0.0016925
 3,-0.00142755,0.00047333,0.00036484,0.00005643,-0.01651743,0.00004676,
 0.00260023,-0.01077762,0.00008717,0.03125216,-0.18922379,0.12340193,-0
 .14330809,0.00510188,-0.00339398,0.00527054,-0.00445097,-0.00060471,0.
 00423422,-0.01473592,0.01502637,-0.02194590,0.00039671,0.00011988,0.00
 045528,-0.00019195,-0.00226248,0.00006066,-0.00028863,-0.00013060,0.00
 018971,0.19871383,0.13438795,-0.13206423,0.12170948,0.01250646,-0.0117
 1026,0.01389499,-0.00083968,0.00078274,0.00070659,-0.00522198,-0.00030
 565,-0.00151846,0.00013514,-0.00036327,-0.00010029,-0.00232626,-0.0049
 9814,-0.00100404,-0.00028736,0.00293017,-0.00047921,-0.12691618,0.1381
 3512,-0.13529321,0.10614731,-0.20332317,-0.00044804,0.00159034,0.00061
 387,0.00266422,0.00076389,-0.00022815,0.00460902,-0.00575160,0.0083964
 9,0.00011402,-0.00015413,-0.00021201,0.00052795,0.00028956,0.00095902,
 0.00027552,-0.00104791,0.00014821,0.14996704,-0.12176963,0.21423516,-0
 .06332818,0.03358039,0.05379351,0.00219357,-0.00237591,-0.00634623,0.0
 0213394,-0.00158185,-0.00240559,0.00095794,0.00903763,0.02876474,-0.00
 108611,0.00175782,-0.00055861,-0.00000609,0.00067214,0.00003284,-0.000
 54399,0.00064695,-0.00002896,0.00388002,-0.01072411,-0.02344249,0.0596
 0137,0.03600609,-0.07847468,-0.13338615,0.00297542,-0.01062705,-0.0211
 3026,0.00135705,-0.00074754,0.00043088,-0.00609677,-0.00029631,0.00460
 785,0.00105476,0.00014575,-0.00009181,0.00076264,0.00236349,0.00122284
 ,0.00023332,0.00139532,0.00090097,-0.00401339,0.00646119,0.02043489,-0
 .02804130,0.08470424,0.04345076,-0.11340572,-0.37402134,-0.00030238,-0
 .00059627,0.00110830,-0.00265385,-0.00003458,0.00123843,0.00239156,-0.
 00221374,-0.00773417,0.00014073,-0.00019172,0.00004628,0.00039146,0.00
 118659,0.00037943,-0.00000814,0.00054693,-0.00028448,0.00596385,-0.010
 92032,-0.02024460,-0.05045519,0.12480570,0.39775506,-0.00003916,0.0027
 5638,-0.00326862,0.00032640,-0.00001335,0.00010673,-0.42669344,0.03466
 824,0.11776555,-0.01528871,-0.00034443,0.01043186,-0.00139712,0.001489
 40,-0.00351142,-0.00004779,-0.00003620,-0.00005442,0.00015625,0.000056
 46,-0.00006825,-0.00081578,-0.00036954,0.00046436,0.00018058,-0.000044
 26,0.00000619,0.44205158,0.00162389,0.00556422,0.00202371,0.00074219,-
 0.00039989,0.00015868,0.04662789,-0.01940883,0.00448187,0.00338854,-0.
 00174943,-0.00511075,-0.01341018,-0.00052816,0.00231384,-0.00017819,0.
 00002052,-0.00021985,0.00005774,0.00047811,-0.00024291,-0.00012378,0.0
 0079169,0.00024475,-0.00092730,-0.00029794,0.00072617,-0.03710520,0.01
 921720,-0.00278921,0.00148478,-0.00233890,0.00008532,0.00086404,-0.000
 08549,0.10885874,0.00791941,-0.09321873,-0.01723532,0.00003567,0.01019
 031,0.03320657,-0.00575154,-0.00583130,0.00018296,-0.00008188,0.000191
 12,-0.00005145,-0.00011001,-0.00000735,-0.00099336,0.00024606,0.000499
 32,-0.00018948,0.00026122,-0.00015673,-0.12189447,-0.00370376,0.091202
 29,-0.00519725,-0.00228059,0.02226261,0.00045923,0.00198074,0.00004218
 ,0.00768262,0.00578363,-0.01818497,-0.05072158,-0.00910839,0.03455978,
 -0.00252686,0.00082079,-0.00238563,0.00017582,-0.00029970,0.00029685,-
 0.00012956,-0.00036201,-0.00013982,0.00204825,-0.00018959,0.00037748,-
 0.00377259,-0.00160674,0.00114631,0.00147280,-0.00071479,0.00075704,0.
 05053489,0.00307835,0.00871104,0.00067229,0.00057586,-0.00173287,-0.00
 122015,0.00043310,0.00725121,0.00637643,-0.00741074,-0.05007328,0.0414
 6086,0.00068782,0.00585983,0.00213794,-0.00002134,0.00034354,0.0002425
 3,-0.00009305,0.00065927,0.00027163,-0.00136363,-0.00067251,-0.0004799
 8,-0.00057655,0.00071350,-0.00015400,-0.00098427,-0.00361738,-0.001020
 64,0.00638496,0.03259911,0.00278910,0.00308813,-0.00363444,-0.00011437
 ,-0.00224683,-0.00079156,0.00252859,0.00501622,-0.01168614,0.03475441,
 0.04164998,-0.21975359,-0.00202195,0.00101807,0.00023676,0.00009199,0.
 00032274,0.00025858,0.00025986,0.00048513,0.00019416,0.00018841,-0.000
 35904,-0.00041350,0.00039857,0.00063080,0.00073646,0.00013652,-0.00064
 480,-0.00039393,-0.03862790,-0.04917016,0.23443216,0.00394467,-0.00325
 145,-0.00817259,-0.05522167,0.02158850,0.05025005,0.00033875,-0.000627
 84,-0.00053923,-0.00082115,0.00232943,0.00163997,0.00006913,0.00013082
 ,0.00004278,0.00437123,-0.00366962,-0.00707636,-0.00499508,0.00870058,
 0.01801280,-0.00043364,-0.00015484,0.00018413,-0.00021046,-0.00258683,
 -0.00007129,0.00009441,0.00001920,0.00006267,-0.00002576,-0.00071049,-
 0.00038322,0.05288958,0.00295018,-0.01476485,-0.01978252,0.01992545,-0
 .05430381,-0.04809337,-0.00071870,0.00042456,0.00025937,0.00304812,-0.
 00052396,-0.00185046,0.00002935,-0.00019517,0.00007601,-0.00276873,0.0
 0642422,0.00694520,0.00099063,0.00238610,-0.00051086,0.00026057,0.0010
 1315,-0.00026749,-0.00146790,-0.00533998,0.00025096,-0.00007322,-0.000
 07011,-0.00014333,-0.00040831,-0.00004145,0.00020976,-0.02176746,0.064
 99131,-0.00360024,-0.00313439,0.00223016,0.04886898,-0.05321349,-0.159
 75606,-0.00056003,0.00056366,0.00088260,0.00230428,-0.00234545,-0.0034
 0628,0.00053969,-0.00000201,-0.00002589,0.00484273,-0.00619278,-0.0133
 0508,0.00141769,-0.00034552,0.00051231,-0.00008235,-0.00040612,-0.0004
 3066,0.00043691,0.00131306,0.00117735,-0.00011404,-0.00002695,-0.00005
 061,-0.00010392,0.00088325,0.00081503,-0.05394970,0.06290674,0.1713571
 3\\-0.00003990,-0.00000983,-0.00000458,0.00001757,0.00001293,0.0000000
 5,0.00003469,-0.00000262,-0.00001212,0.00001512,0.00001504,0.00000952,
 -0.00001114,-0.00000335,0.00000274,-0.00000542,0.00000193,0.00000445,-
 0.00000006,-0.00000345,0.00000084,0.00000253,0.00000326,0.00000138,-0.
 00000071,-0.00000354,0.00000163,-0.00000239,-0.00000089,0.00000377,-0.
 00000300,-0.00000784,-0.00000795,-0.00000728,-0.00000163,0.00000029\\\
 @


 EDUCATION WITHOUT COMMON SENSE IS A LOAD OF BOOKS ON THE BACK OF AN ASS.
 Job cpu time:       0 days  0 hours 11 minutes 12.3 seconds.
 Elapsed time:       0 days  0 hours  2 minutes 48.2 seconds.
 File lengths (MBytes):  RWF=     29 Int=      0 D2E=      0 Chk=      2 Scr=      1
 Normal termination of Gaussian 16 at Fri Jul  3 16:46:11 2020.
