 Entering Gaussian System, Link 0=/opt/gaussian/g16/legacy/g16/g16
 Initial command:
 /opt/gaussian/g16/legacy/g16/l1.exe "/scratch/1311824/Gau-10360.inp" -scrdir="/scratch/1311824/"
 Entering Link 1 = /opt/gaussian/g16/legacy/g16/l1.exe PID=     10365.
  
 Copyright (c) 1988,1990,1992,1993,1995,1998,2003,2009,2016,
            Gaussian, Inc.  All Rights Reserved.
  
 This is part of the Gaussian(R) 16 program.  It is based on
 the Gaussian(R) 09 system (copyright 2009, Gaussian, Inc.),
 the Gaussian(R) 03 system (copyright 2003, Gaussian, Inc.),
 the Gaussian(R) 98 system (copyright 1998, Gaussian, Inc.),
 the Gaussian(R) 94 system (copyright 1995, Gaussian, Inc.),
 the Gaussian 92(TM) system (copyright 1992, Gaussian, Inc.),
 the Gaussian 90(TM) system (copyright 1990, Gaussian, Inc.),
 the Gaussian 88(TM) system (copyright 1988, Gaussian, Inc.),
 the Gaussian 86(TM) system (copyright 1986, Carnegie Mellon
 University), and the Gaussian 82(TM) system (copyright 1983,
 Carnegie Mellon University). Gaussian is a federally registered
 trademark of Gaussian, Inc.
  
 This software contains proprietary and confidential information,
 including trade secrets, belonging to Gaussian, Inc.
  
 This software is provided under written license and may be
 used, copied, transmitted, or stored only in accord with that
 written license.
  
 The following legend is applicable only to US Government
 contracts under FAR:
  
                    RESTRICTED RIGHTS LEGEND
  
 Use, reproduction and disclosure by the US Government is
 subject to restrictions as set forth in subparagraphs (a)
 and (c) of the Commercial Computer Software - Restricted
 Rights clause in FAR 52.227-19.
  
 Gaussian, Inc.
 340 Quinnipiac St., Bldg. 40, Wallingford CT 06492
  
  
 ---------------------------------------------------------------
 Warning -- This program may not be used in any manner that
 competes with the business of Gaussian, Inc. or will provide
 assistance to any competitor of Gaussian, Inc.  The licensee
 of this program is prohibited from giving any competitor of
 Gaussian, Inc. access to this program.  By using this program,
 the user acknowledges that Gaussian, Inc. is engaged in the
 business of creating and licensing software in the field of
 computational chemistry and represents and warrants to the
 licensee that it is not a competitor of Gaussian, Inc. and that
 it will not use this program in any manner prohibited above.
 ---------------------------------------------------------------
  

 Cite this work as:
 Gaussian 16, Revision A.03,
 M. J. Frisch, G. W. Trucks, H. B. Schlegel, G. E. Scuseria, 
 M. A. Robb, J. R. Cheeseman, G. Scalmani, V. Barone, 
 G. A. Petersson, H. Nakatsuji, X. Li, M. Caricato, A. V. Marenich, 
 J. Bloino, B. G. Janesko, R. Gomperts, B. Mennucci, H. P. Hratchian, 
 J. V. Ortiz, A. F. Izmaylov, J. L. Sonnenberg, D. Williams-Young, 
 F. Ding, F. Lipparini, F. Egidi, J. Goings, B. Peng, A. Petrone, 
 T. Henderson, D. Ranasinghe, V. G. Zakrzewski, J. Gao, N. Rega, 
 G. Zheng, W. Liang, M. Hada, M. Ehara, K. Toyota, R. Fukuda, 
 J. Hasegawa, M. Ishida, T. Nakajima, Y. Honda, O. Kitao, H. Nakai, 
 T. Vreven, K. Throssell, J. A. Montgomery, Jr., J. E. Peralta, 
 F. Ogliaro, M. J. Bearpark, J. J. Heyd, E. N. Brothers, K. N. Kudin, 
 V. N. Staroverov, T. A. Keith, R. Kobayashi, J. Normand, 
 K. Raghavachari, A. P. Rendell, J. C. Burant, S. S. Iyengar, 
 J. Tomasi, M. Cossi, J. M. Millam, M. Klene, C. Adamo, R. Cammi, 
 J. W. Ochterski, R. L. Martin, K. Morokuma, O. Farkas, 
 J. B. Foresman, and D. J. Fox, Gaussian, Inc., Wallingford CT, 2016.
 
 ******************************************
 Gaussian 16:  EM64L-G16RevA.03 25-Dec-2016
                 3-Jul-2020 
 ******************************************
 %mem=16GB
 %nprocshared=4
 Will use up to    4 processors via shared memory.
 ----------------------------------------------------------------------
 #irc=(reverse calcfc, maxpoint=100, stepsize=5) ub3lyp/6-31G(d,p) scf=
 (maxcycles=1024)
 ----------------------------------------------------------------------
 1/10=4,18=10,22=2,26=3,38=1,39=5,42=100,44=3,172=1/1,23;
 2/12=2,17=6,18=5,29=1,40=1/2;
 3/5=1,6=6,7=101,11=2,25=1,30=1,71=2,74=-5,116=2,140=1/1,2,3;
 4//1;
 5/5=2,7=1024,38=5/2;
 8/6=4,10=90,11=11/1;
 11/6=1,8=1,9=11,15=111,16=1/1,2,10;
 10/6=1,13=1/2;
 6/7=2,8=2,9=2,10=2,28=1/1;
 7/10=1,18=20,25=1/1,2,3,16;
 1/10=4,18=10,22=2,26=3,39=5,42=100,44=3/23(2);
 2/29=1/2;
 99/5=20/99;
 2/29=1/2;
 3/5=1,6=6,7=101,11=2,25=1,30=1,71=2,74=-5,116=2,140=1/1,2,3;
 4/5=5,16=3,69=1/1;
 5/5=2,7=1024,38=5/2;
 8/6=4,10=90,11=11/1;
 11/6=1,8=1,9=11,15=111,16=1/1,2,10;
 10/6=1,13=1/2;
 7/10=1,18=20,25=1/1,2,3,16;
 1/18=10,22=2,26=3,39=5,42=100,44=3/23(-8);
 2/29=1/2;
 6/7=2,8=2,9=2,10=2,19=2,28=1/1;
 99/5=20,9=1/99;
 ---------------
 something title
 ---------------
 Symbolic Z-matrix:
 Charge =  0 Multiplicity = 1
 N                     1.11214  -0.71502  -0.1757 
 B                     1.33386   0.71452  -0.14368 
 N                    -1.70156   0.0321   -0.24201 
 B                    -0.6241    0.11747   0.67627 
 H                    -1.85646   0.69954  -0.98022 
 H                     1.08241   1.34457  -1.12717 
 H                     2.06288   1.15406   0.69306 
 H                     1.54696  -1.34122   0.48564 
 H                     0.74916  -1.18258  -0.99298 
 H                    -2.36331  -0.72669  -0.23416 
 H                    -0.5958   -0.52769   1.67923 
 H                    -0.04869   1.2005    0.73764 
 
 IRC-IRC-IRC-IRC-IRC-IRC-IRC-IRC-IRC-IRC-IRC-IRC-IRC-IRC-IRC-IRC-IRC-IRC
 ------------------------------------------------------------------------
 INPUT DATA FOR L123
 ------------------------------------------------------------------------
 GENERAL PARAMETERS:
 Rxn path following direction = Reverse
 Maximum points per path      = 100
 Step size                    =   0.050 bohr
 Integration scheme           = HPC                                 
    Redo corrector integration= Yes                                 
    DWI Weight Power          =  2
    DWI will use Hessian update vectors when possible.
    Max correction cycles     =  20
 Initial Hessian              = CalcFC
 Hessian evaluation           = All updating
 Hessian updating method      = Bofill                              
 ------------------------------------------------------------------------
 IRC-IRC-IRC-IRC-IRC-IRC-IRC-IRC-IRC-IRC-IRC-IRC-IRC-IRC-IRC-IRC-IRC-IRC
                          Input orientation:                          
 ---------------------------------------------------------------------
 Center     Atomic      Atomic             Coordinates (Angstroms)
 Number     Number       Type             X           Y           Z
 ---------------------------------------------------------------------
      1          7           0        1.112140   -0.715020   -0.175700
      2          5           0        1.333860    0.714520   -0.143680
      3          7           0       -1.701560    0.032100   -0.242010
      4          5           0       -0.624100    0.117470    0.676270
      5          1           0       -1.856460    0.699540   -0.980220
      6          1           0        1.082410    1.344570   -1.127170
      7          1           0        2.062880    1.154060    0.693060
      8          1           0        1.546960   -1.341220    0.485640
      9          1           0        0.749160   -1.182580   -0.992980
     10          1           0       -2.363310   -0.726690   -0.234160
     11          1           0       -0.595800   -0.527690    1.679230
     12          1           0       -0.048690    1.200500    0.737640
 ---------------------------------------------------------------------
                    Distance matrix (angstroms):
                    1          2          3          4          5
     1  N    0.000000
     2  B    1.446986   0.000000
     3  N    2.911957   3.112738   0.000000
     4  B    2.105569   2.205084   1.418255   0.000000
     5  H    3.385383   3.298206   1.007186   2.145105   0.000000
     6  H    2.268940   1.194756   3.202589   2.769539   3.012410
     7  H    2.269826   1.193650   4.037841   2.880046   4.285753
     8  H    1.009240   2.160445   3.601162   2.622521   4.230451
     9  H    1.009115   2.159207   2.836447   2.522374   3.214311
    10  H    3.475961   3.969174   1.006845   2.136900   1.687494
    11  H    2.528422   2.930815   2.286314   1.192879   3.188735
    12  H    2.418870   1.710072   2.248745   1.227932   2.543627
                    6          7          8          9         10
     6  H    0.000000
     7  H    2.076259   0.000000
     8  H    3.167086   2.556486   0.000000
     9  H    2.552557   3.166777   1.687593   0.000000
    10  H    4.118321   4.897766   4.023179   3.235910   0.000000
    11  H    3.767974   3.296876   2.584165   3.062434   2.612423
    12  H    2.185786   2.112551   3.011635   3.051341   3.164794
                   11         12
    11  H    0.000000
    12  H    2.042685   0.000000
 Symmetry turned off by external request.
 Stoichiometry    B2H8N2
 Framework group  C1[X(B2H8N2)]
 Deg. of freedom    30
 Full point group                 C1      NOp   1
 Rotational constants (GHZ):          14.0564776           4.4517485           4.1476922
 Standard basis: 6-31G(d,p) (6D, 7F)
   100 basis functions,   168 primitive gaussians,   100 cartesian basis functions
    16 alpha electrons       16 beta electrons
       nuclear repulsion energy       113.1549066159 Hartrees.
 NAtoms=   12 NActive=   12 NUniq=   12 SFac= 1.00D+00 NAtFMM=   60 NAOKFM=F Big=F
 Integral buffers will be    131072 words long.
 Raffenetti 2 integral format.
 Two-electron integral symmetry is turned off.
 One-electron integrals computed using PRISM.
 NBasis=   100 RedAO= T EigKep=  5.90D-03  NBF=   100
 NBsUse=   100 1.00D-06 EigRej= -1.00D+00 NBFU=   100
 ExpMin= 1.27D-01 ExpMax= 4.17D+03 ExpMxC= 6.27D+02 IAcc=3 IRadAn=         5 AccDes= 0.00D+00
 Harris functional with IExCor=  402 and IRadAn=       5 diagonalized for initial guess.
 HarFok:  IExCor=  402 AccDes= 0.00D+00 IRadAn=         5 IDoV= 1 UseB2=F ITyADJ=14
 ICtDFT=  3500011 ScaDFX=  1.000000  1.000000  1.000000  1.000000
 FoFCou: FMM=F IPFlag=           0 FMFlag=      100000 FMFlg1=           0
         NFxFlg=           0 DoJE=T BraDBF=F KetDBF=T FulRan=T
         wScrn=  0.000000 ICntrl=       500 IOpCl=  0 I1Cent=   200000004 NGrid=           0
         NMat0=    1 NMatS0=      1 NMatT0=    0 NMatD0=    1 NMtDS0=    0 NMtDT0=    0
 Symmetry not used in FoFCou.
 Initial guess <Sx>= 0.0000 <Sy>= 0.0000 <Sz>= 0.0000 <S**2>= 0.0000 S= 0.0000
 Keep R1 and R2 ints in memory in canonical form, NReq=29209606.
 Requested convergence on RMS density matrix=1.00D-08 within1024 cycles.
 Requested convergence on MAX density matrix=1.00D-06.
 Requested convergence on             energy=1.00D-06.
 No special actions if energy rises.
 Integral accuracy reduced to 1.0D-05 until final iterations.
 Initial convergence to 1.0D-05 achieved.  Increase integral accuracy.
 SCF Done:  E(UB3LYP) =  -164.082575671     A.U. after   13 cycles
            NFock= 13  Conv=0.31D-08     -V/T= 2.0100
 <Sx>= 0.0000 <Sy>= 0.0000 <Sz>= 0.0000 <S**2>= 0.0000 S= 0.0000
 <L.S>= 0.000000000000E+00
 Annihilation of the first spin contaminant:
 S**2 before annihilation     0.0000,   after     0.0000
 DoSCS=F DFT=T ScalE2(SS,OS)=  1.000000  1.000000
 Range of M.O.s used for correlation:     1   100
 NBasis=   100 NAE=    16 NBE=    16 NFC=     0 NFV=     0
 NROrb=    100 NOA=    16 NOB=    16 NVA=    84 NVB=    84
 Symmetrizing basis deriv contribution to polar:
 IMax=3 JMax=2 DiffMx= 0.00D+00
 G2DrvN: will do    13 centers at a time, making    1 passes.
 Calling FoFCou, ICntrl=  3107 FMM=F I1Cent=   0 AccDes= 0.00D+00.
 End of G2Drv F.D. properties file   721 does not exist.
 End of G2Drv F.D. properties file   722 does not exist.
 End of G2Drv F.D. properties file   788 does not exist.
          IDoAtm=111111111111
          Differentiating once with respect to nuclear coordinates.
 Keep R1 and R2 ints in memory in canonical form, NReq=29207551.
          There are    39 degrees of freedom in the 1st order CPHF.  IDoFFX=6 NUNeed=     0.
     33 vectors produced by pass  0 Test12= 6.89D-15 2.56D-09 XBig12= 1.41D-01 1.01D-01.
 AX will form    33 AO Fock derivatives at one time.
     33 vectors produced by pass  1 Test12= 6.89D-15 2.56D-09 XBig12= 1.11D-02 1.89D-02.
     33 vectors produced by pass  2 Test12= 6.89D-15 2.56D-09 XBig12= 6.48D-05 1.34D-03.
     33 vectors produced by pass  3 Test12= 6.89D-15 2.56D-09 XBig12= 1.29D-07 4.78D-05.
     33 vectors produced by pass  4 Test12= 6.89D-15 2.56D-09 XBig12= 1.11D-10 1.26D-06.
     12 vectors produced by pass  5 Test12= 6.89D-15 2.56D-09 XBig12= 5.55D-14 2.27D-08.
 InvSVY:  IOpt=1 It=  1 EMax= 1.55D-15
 Solved reduced A of dimension   177 with    33 vectors.
 End of Minotr F.D. properties file   721 does not exist.
 End of Minotr F.D. properties file   722 does not exist.
 End of Minotr F.D. properties file   788 does not exist.

 **********************************************************************

            Population analysis using the SCF density.

 **********************************************************************

 Alpha  occ. eigenvalues --  -14.33725 -14.30598  -6.74275  -6.74198  -0.87173
 Alpha  occ. eigenvalues --   -0.83930  -0.55579  -0.51080  -0.49502  -0.48427
 Alpha  occ. eigenvalues --   -0.40017  -0.39112  -0.32358  -0.31528  -0.30651
 Alpha  occ. eigenvalues --   -0.23420
 Alpha virt. eigenvalues --    0.04489   0.07485   0.08992   0.10646   0.13222
 Alpha virt. eigenvalues --    0.15319   0.18112   0.22702   0.23266   0.24281
 Alpha virt. eigenvalues --    0.26523   0.28106   0.43120   0.44272   0.45756
 Alpha virt. eigenvalues --    0.49441   0.53430   0.56154   0.66186   0.69201
 Alpha virt. eigenvalues --    0.73773   0.74597   0.78906   0.83528   0.83757
 Alpha virt. eigenvalues --    0.88421   0.89061   0.90475   0.91004   0.92961
 Alpha virt. eigenvalues --    0.95233   0.98476   1.03753   1.12244   1.14787
 Alpha virt. eigenvalues --    1.22562   1.26618   1.34287   1.38242   1.44725
 Alpha virt. eigenvalues --    1.48064   1.53044   1.61061   1.69515   1.70506
 Alpha virt. eigenvalues --    1.73158   1.75535   1.83934   2.02787   2.07492
 Alpha virt. eigenvalues --    2.14577   2.15675   2.17633   2.17934   2.23036
 Alpha virt. eigenvalues --    2.27683   2.30166   2.35638   2.39973   2.40866
 Alpha virt. eigenvalues --    2.48236   2.54618   2.56408   2.57979   2.59958
 Alpha virt. eigenvalues --    2.62157   2.64287   2.68291   2.72125   2.72968
 Alpha virt. eigenvalues --    2.95158   2.96282   3.06543   3.13841   3.22762
 Alpha virt. eigenvalues --    3.23746   3.29299   3.30874   3.57291   3.59512
 Alpha virt. eigenvalues --    3.66381   3.68573   4.20887   4.22843
  Beta  occ. eigenvalues --  -14.33725 -14.30598  -6.74275  -6.74198  -0.87173
  Beta  occ. eigenvalues --   -0.83930  -0.55579  -0.51080  -0.49502  -0.48427
  Beta  occ. eigenvalues --   -0.40017  -0.39112  -0.32358  -0.31528  -0.30651
  Beta  occ. eigenvalues --   -0.23420
  Beta virt. eigenvalues --    0.04489   0.07485   0.08992   0.10646   0.13222
  Beta virt. eigenvalues --    0.15319   0.18112   0.22702   0.23266   0.24281
  Beta virt. eigenvalues --    0.26523   0.28106   0.43120   0.44272   0.45756
  Beta virt. eigenvalues --    0.49441   0.53430   0.56154   0.66186   0.69201
  Beta virt. eigenvalues --    0.73773   0.74597   0.78906   0.83528   0.83757
  Beta virt. eigenvalues --    0.88421   0.89061   0.90475   0.91004   0.92961
  Beta virt. eigenvalues --    0.95233   0.98476   1.03753   1.12244   1.14787
  Beta virt. eigenvalues --    1.22562   1.26618   1.34287   1.38242   1.44725
  Beta virt. eigenvalues --    1.48064   1.53044   1.61061   1.69515   1.70506
  Beta virt. eigenvalues --    1.73158   1.75535   1.83934   2.02787   2.07492
  Beta virt. eigenvalues --    2.14577   2.15675   2.17633   2.17934   2.23036
  Beta virt. eigenvalues --    2.27683   2.30166   2.35638   2.39973   2.40866
  Beta virt. eigenvalues --    2.48236   2.54618   2.56408   2.57979   2.59958
  Beta virt. eigenvalues --    2.62157   2.64287   2.68291   2.72125   2.72968
  Beta virt. eigenvalues --    2.95158   2.96282   3.06543   3.13841   3.22762
  Beta virt. eigenvalues --    3.23746   3.29299   3.30874   3.57291   3.59512
  Beta virt. eigenvalues --    3.66381   3.68573   4.20887   4.22843
          Condensed to atoms (all electrons):
               1          2          3          4          5          6
     1  N    6.574312   0.398484  -0.033004   0.059286   0.000305  -0.023882
     2  B    0.398484   3.533364  -0.004274   0.064302  -0.000605   0.409881
     3  N   -0.033004  -0.004274   6.476884   0.478336   0.361567  -0.002315
     4  B    0.059286   0.064302   0.478336   3.501875  -0.038756  -0.005037
     5  H    0.000305  -0.000605   0.361567  -0.038756   0.457693   0.001325
     6  H   -0.023882   0.409881  -0.002315  -0.005037   0.001325   0.733497
     7  H   -0.023453   0.411810   0.000436  -0.008600   0.000011  -0.021462
     8  H    0.352059  -0.031163   0.000651  -0.001695   0.000012   0.003122
     9  H    0.343300  -0.028594   0.007268  -0.001702   0.000167  -0.004421
    10  H   -0.000405   0.000753   0.361438  -0.036509  -0.030761  -0.000035
    11  H   -0.017029  -0.010176  -0.020785   0.404734   0.003319   0.000759
    12  H   -0.054319   0.077395  -0.024053   0.343342  -0.003559  -0.015718
               7          8          9         10         11         12
     1  N   -0.023453   0.352059   0.343300  -0.000405  -0.017029  -0.054319
     2  B    0.411810  -0.031163  -0.028594   0.000753  -0.010176   0.077395
     3  N    0.000436   0.000651   0.007268   0.361438  -0.020785  -0.024053
     4  B   -0.008600  -0.001695  -0.001702  -0.036509   0.404734   0.343342
     5  H    0.000011   0.000012   0.000167  -0.030761   0.003319  -0.003559
     6  H   -0.021462   0.003122  -0.004421  -0.000035   0.000759  -0.015718
     7  H    0.723741  -0.003651   0.003142  -0.000017  -0.000318  -0.011648
     8  H   -0.003651   0.434695  -0.026568   0.000007   0.001367   0.001303
     9  H    0.003142  -0.026568   0.437956   0.000161   0.000704   0.002075
    10  H   -0.000017   0.000007   0.000161   0.460587  -0.002551   0.003086
    11  H   -0.000318   0.001367   0.000704  -0.002551   0.737358  -0.015251
    12  H   -0.011648   0.001303   0.002075   0.003086  -0.015251   0.740859
          Atomic-Atomic Spin Densities.
               1          2          3          4          5          6
     1  N    0.000000   0.000000   0.000000  -0.000000  -0.000000   0.000000
     2  B    0.000000  -0.000000  -0.000000  -0.000000   0.000000   0.000000
     3  N    0.000000  -0.000000  -0.000000   0.000000  -0.000000   0.000000
     4  B   -0.000000  -0.000000   0.000000   0.000000   0.000000  -0.000000
     5  H   -0.000000   0.000000  -0.000000   0.000000  -0.000000   0.000000
     6  H    0.000000   0.000000   0.000000  -0.000000   0.000000   0.000000
     7  H    0.000000  -0.000000  -0.000000   0.000000  -0.000000   0.000000
     8  H   -0.000000  -0.000000  -0.000000  -0.000000   0.000000   0.000000
     9  H   -0.000000  -0.000000  -0.000000  -0.000000   0.000000  -0.000000
    10  H   -0.000000  -0.000000   0.000000  -0.000000  -0.000000   0.000000
    11  H   -0.000000  -0.000000   0.000000  -0.000000   0.000000  -0.000000
    12  H    0.000000  -0.000000   0.000000  -0.000000  -0.000000  -0.000000
               7          8          9         10         11         12
     1  N    0.000000  -0.000000  -0.000000  -0.000000  -0.000000   0.000000
     2  B   -0.000000  -0.000000  -0.000000  -0.000000  -0.000000  -0.000000
     3  N   -0.000000  -0.000000  -0.000000   0.000000   0.000000   0.000000
     4  B    0.000000  -0.000000  -0.000000  -0.000000  -0.000000  -0.000000
     5  H   -0.000000   0.000000   0.000000  -0.000000   0.000000  -0.000000
     6  H    0.000000   0.000000  -0.000000   0.000000  -0.000000  -0.000000
     7  H   -0.000000   0.000000  -0.000000   0.000000   0.000000   0.000000
     8  H    0.000000  -0.000000   0.000000   0.000000   0.000000  -0.000000
     9  H   -0.000000   0.000000  -0.000000   0.000000   0.000000   0.000000
    10  H    0.000000   0.000000   0.000000  -0.000000  -0.000000   0.000000
    11  H    0.000000   0.000000   0.000000  -0.000000   0.000000   0.000000
    12  H    0.000000  -0.000000   0.000000   0.000000   0.000000   0.000000
 Mulliken charges and spin densities:
               1          2
     1  N   -0.575653   0.000000
     2  B    0.178824  -0.000000
     3  N   -0.602149  -0.000000
     4  B    0.240423  -0.000000
     5  H    0.249282  -0.000000
     6  H   -0.075714   0.000000
     7  H   -0.069991  -0.000000
     8  H    0.269862  -0.000000
     9  H    0.266511  -0.000000
    10  H    0.244245  -0.000000
    11  H   -0.082130   0.000000
    12  H   -0.043511   0.000000
 Sum of Mulliken charges =   0.00000   0.00000
 Mulliken charges and spin densities with hydrogens summed into heavy atoms:
               1          2
     1  N   -0.039280   0.000000
     2  B    0.033118  -0.000000
     3  N   -0.108621  -0.000000
     4  B    0.114782   0.000000
 APT charges:
               1
     1  N   -1.023254
     2  B   -0.391437
     3  N   -1.149634
     4  B   -0.287990
     5  H    0.508802
     6  H    0.138388
     7  H    0.253450
     8  H    0.587759
     9  H    0.432244
    10  H    0.624685
    11  H    0.177902
    12  H    0.129084
 Sum of APT charges =   0.00000
 APT charges with hydrogens summed into heavy atoms:
               1
     1  N   -0.003251
     2  B    0.000401
     3  N   -0.016146
     4  B    0.018996
 Electronic spatial extent (au):  <R**2>=            355.8605
 Charge=              0.0000 electrons
 Dipole moment (field-independent basis, Debye):
    X=             -0.7243    Y=             -2.1730    Z=             -1.3791  Tot=              2.6736
 Quadrupole moment (field-independent basis, Debye-Ang):
   XX=            -25.7951   YY=            -25.5987   ZZ=            -27.6763
   XY=             -2.3001   XZ=              2.8468   YZ=             -0.0753
 Traceless Quadrupole moment (field-independent basis, Debye-Ang):
   XX=              0.5616   YY=              0.7580   ZZ=             -1.3196
   XY=             -2.3001   XZ=              2.8468   YZ=             -0.0753
 Octapole moment (field-independent basis, Debye-Ang**2):
  XXX=            -15.4241  YYY=            -13.3253  ZZZ=             -8.3164  XYY=             -2.8067
  XXY=            -10.6210  XXZ=             -4.9134  XZZ=             -2.4756  YZZ=             -3.6432
  YYZ=             -2.3650  XYZ=              0.5176
 Hexadecapole moment (field-independent basis, Debye-Ang**3):
 XXXX=           -291.7946 YYYY=           -101.0052 ZZZZ=            -87.4470 XXXY=             -5.5828
 XXXZ=             16.7825 YYYX=            -16.0776 YYYZ=              1.4690 ZZZX=              7.8125
 ZZZY=              2.0854 XXYY=            -62.7369 XXZZ=            -62.8507 YYZZ=            -29.8468
 XXYZ=             -5.2302 YYXZ=              4.8693 ZZXY=             -7.8418
 N-N= 1.131549066159D+02 E-N=-6.066728917862D+02  KE= 1.624613138635D+02
  Exact polarizability:   0.000   0.000   0.000   0.000   0.000   0.000
 Approx polarizability:  64.634   1.014  54.555   1.679  -2.188  52.354
                          Isotropic Fermi Contact Couplings
        Atom                 a.u.       MegaHertz       Gauss      10(-4) cm-1
     1  N(14)              0.00000       0.00000       0.00000       0.00000
     2  B(11)              0.00000       0.00000       0.00000       0.00000
     3  N(14)              0.00000       0.00000       0.00000       0.00000
     4  B(11)              0.00000       0.00000       0.00000       0.00000
     5  H(1)              -0.00000      -0.00000      -0.00000      -0.00000
     6  H(1)               0.00000       0.00000       0.00000       0.00000
     7  H(1)              -0.00000      -0.00000      -0.00000      -0.00000
     8  H(1)              -0.00000      -0.00000      -0.00000      -0.00000
     9  H(1)              -0.00000      -0.00000      -0.00000      -0.00000
    10  H(1)              -0.00000      -0.00000      -0.00000      -0.00000
    11  H(1)              -0.00000      -0.00000      -0.00000      -0.00000
    12  H(1)               0.00000       0.00000       0.00000       0.00000
 --------------------------------------------------------
       Center         ----  Spin Dipole Couplings  ----
                      3XX-RR        3YY-RR        3ZZ-RR
 --------------------------------------------------------
     1   Atom        0.000000      0.000000      0.000000
     2   Atom        0.000000      0.000000      0.000000
     3   Atom        0.000000      0.000000      0.000000
     4   Atom        0.000000      0.000000      0.000000
     5   Atom        0.000000      0.000000      0.000000
     6   Atom        0.000000      0.000000      0.000000
     7   Atom        0.000000      0.000000      0.000000
     8   Atom        0.000000      0.000000      0.000000
     9   Atom        0.000000      0.000000      0.000000
    10   Atom        0.000000      0.000000      0.000000
    11   Atom        0.000000      0.000000      0.000000
    12   Atom        0.000000      0.000000      0.000000
 --------------------------------------------------------
                        XY            XZ            YZ
 --------------------------------------------------------
     1   Atom        0.000000      0.000000      0.000000
     2   Atom        0.000000      0.000000      0.000000
     3   Atom        0.000000      0.000000      0.000000
     4   Atom        0.000000      0.000000      0.000000
     5   Atom        0.000000      0.000000      0.000000
     6   Atom        0.000000      0.000000      0.000000
     7   Atom        0.000000      0.000000      0.000000
     8   Atom        0.000000      0.000000      0.000000
     9   Atom        0.000000      0.000000      0.000000
    10   Atom        0.000000      0.000000      0.000000
    11   Atom        0.000000      0.000000      0.000000
    12   Atom        0.000000      0.000000      0.000000
 --------------------------------------------------------


 ---------------------------------------------------------------------------------
              Anisotropic Spin Dipole Couplings in Principal Axis System
 ---------------------------------------------------------------------------------

       Atom             a.u.   MegaHertz   Gauss  10(-4) cm-1        Axes

              Baa     0.0000     0.000     0.000     0.000  1.0000  0.0000  0.0000
     1 N(14)  Bbb     0.0000     0.000     0.000     0.000 -0.0000  1.0000  0.0000
              Bcc     0.0000     0.000     0.000     0.000  0.0000  0.0000  1.0000
 
              Baa     0.0000     0.000     0.000     0.000  1.0000  0.0000  0.0000
     2 B(11)  Bbb     0.0000     0.000     0.000     0.000 -0.0000  1.0000  0.0000
              Bcc     0.0000     0.000     0.000     0.000  0.0000  0.0000  1.0000
 
              Baa     0.0000     0.000     0.000     0.000  1.0000  0.0000  0.0000
     3 N(14)  Bbb     0.0000     0.000     0.000     0.000 -0.0000  1.0000  0.0000
              Bcc     0.0000     0.000     0.000     0.000  0.0000  0.0000  1.0000
 
              Baa     0.0000     0.000     0.000     0.000  1.0000  0.0000  0.0000
     4 B(11)  Bbb     0.0000     0.000     0.000     0.000 -0.0000  1.0000  0.0000
              Bcc     0.0000     0.000     0.000     0.000  0.0000  0.0000  1.0000
 
              Baa     0.0000     0.000     0.000     0.000  1.0000  0.0000  0.0000
     5 H(1)   Bbb     0.0000     0.000     0.000     0.000 -0.0000  1.0000  0.0000
              Bcc     0.0000     0.000     0.000     0.000  0.0000  0.0000  1.0000
 
              Baa     0.0000     0.000     0.000     0.000  1.0000  0.0000  0.0000
     6 H(1)   Bbb     0.0000     0.000     0.000     0.000 -0.0000  1.0000  0.0000
              Bcc     0.0000     0.000     0.000     0.000  0.0000  0.0000  1.0000
 
              Baa     0.0000     0.000     0.000     0.000  1.0000  0.0000  0.0000
     7 H(1)   Bbb     0.0000     0.000     0.000     0.000 -0.0000  1.0000  0.0000
              Bcc     0.0000     0.000     0.000     0.000  0.0000  0.0000  1.0000
 
              Baa     0.0000     0.000     0.000     0.000  1.0000  0.0000  0.0000
     8 H(1)   Bbb     0.0000     0.000     0.000     0.000 -0.0000  1.0000  0.0000
              Bcc     0.0000     0.000     0.000     0.000  0.0000  0.0000  1.0000
 
              Baa     0.0000     0.000     0.000     0.000  1.0000  0.0000  0.0000
     9 H(1)   Bbb     0.0000     0.000     0.000     0.000 -0.0000  1.0000  0.0000
              Bcc     0.0000     0.000     0.000     0.000  0.0000  0.0000  1.0000
 
              Baa     0.0000     0.000     0.000     0.000  1.0000  0.0000  0.0000
    10 H(1)   Bbb     0.0000     0.000     0.000     0.000 -0.0000  1.0000  0.0000
              Bcc     0.0000     0.000     0.000     0.000  0.0000  0.0000  1.0000
 
              Baa     0.0000     0.000     0.000     0.000  1.0000  0.0000  0.0000
    11 H(1)   Bbb     0.0000     0.000     0.000     0.000 -0.0000  1.0000  0.0000
              Bcc     0.0000     0.000     0.000     0.000  0.0000  0.0000  1.0000
 
              Baa     0.0000     0.000     0.000     0.000  1.0000  0.0000  0.0000
    12 H(1)   Bbb     0.0000     0.000     0.000     0.000 -0.0000  1.0000  0.0000
              Bcc     0.0000     0.000     0.000     0.000  0.0000  0.0000  1.0000
 

 ---------------------------------------------------------------------------------

 Calling FoFJK, ICntrl=    100147 FMM=F ISym2X=0 I1Cent= 0 IOpClX= 1 NMat=1 NMatS=1 NMatT=0.
 -------------------------------------------------------------------
 Center     Atomic                   Forces (Hartrees/Bohr)
 Number     Number              X              Y              Z
 -------------------------------------------------------------------
      1        7          -0.000000475   -0.000000409   -0.000000443
      2        5          -0.000000306    0.000001683   -0.000001468
      3        7           0.000004822    0.000007481   -0.000007402
      4        5          -0.000003576   -0.000004273    0.000002062
      5        1           0.000000143   -0.000002168    0.000004232
      6        1           0.000000829   -0.000000128    0.000003632
      7        1          -0.000000885    0.000000244    0.000000882
      8        1           0.000000122    0.000001573   -0.000001153
      9        1           0.000001220    0.000002182   -0.000001306
     10        1          -0.000004755   -0.000007284    0.000000490
     11        1           0.000000979   -0.000000898    0.000000014
     12        1           0.000001881    0.000001997    0.000000458
 -------------------------------------------------------------------
 Cartesian Forces:  Max     0.000007481 RMS     0.000002936
 IRC-IRC-IRC-IRC-IRC-IRC-IRC-IRC-IRC-IRC-IRC-IRC-IRC-IRC-IRC-IRC-IRC-IRC
          ******** Start new reaction path calculation ********
 Supplied step size of   0.0500 bohr.
    Integration on MW PES will use step size of   0.1092 sqrt(amu)*bohr.
 Point Number:   0          Path Number:   1
 Calculating another point on the path.
 IRC-IRC-IRC-IRC-IRC-IRC-IRC-IRC-IRC-IRC-IRC-IRC-IRC-IRC-IRC-IRC-IRC-IRC
                          Input orientation:                          
 ---------------------------------------------------------------------
 Center     Atomic      Atomic             Coordinates (Angstroms)
 Number     Number       Type             X           Y           Z
 ---------------------------------------------------------------------
      1          7           0        1.102992   -0.719077   -0.178018
      2          5           0        1.325539    0.713621   -0.145518
      3          7           0       -1.701907    0.028997   -0.246379
      4          5           0       -0.617161    0.109275    0.665854
      5          1           0       -1.854799    0.692933   -0.988104
      6          1           0        1.081943    1.341139   -1.132794
      7          1           0        2.060173    1.150663    0.687837
      8          1           0        1.544799   -1.344538    0.479559
      9          1           0        0.750659   -1.185849   -1.000583
     10          1           0       -2.366847   -0.726892   -0.233380
     11          1           0       -0.593093   -0.523073    1.677151
     12          1           0       -0.039484    1.194659    0.722972
 ---------------------------------------------------------------------
                    Distance matrix (angstroms):
                    1          2          3          4          5
     1  N    0.000000
     2  B    1.450244   0.000000
     3  N    2.903747   3.105529   0.000000
     4  B    2.087394   2.190352   1.419609   0.000000
     5  H    3.376172   3.290126   1.007146   2.146621   0.000000
     6  H    2.270800   1.194919   3.202698   2.763979   3.010907
     7  H    2.271966   1.193806   4.035361   2.872819   4.283141
     8  H    1.009357   2.162133   3.599262   2.611963   4.226416
     9  H    1.009271   2.160928   2.838971   2.515013   3.212224
    10  H    3.470289   3.964406   1.006818   2.137569   1.687514
    11  H    2.521264   2.921076   2.287841   1.192965   3.189696
    12  H    2.404042   1.687886   2.249902   1.230866   2.544578
                    6          7          8          9         10
     6  H    0.000000
     7  H    2.075551   0.000000
     8  H    3.166509   2.556368   0.000000
     9  H    2.552038   3.166208   1.687206   0.000000
    10  H    4.120662   4.896158   4.023773   3.243160   0.000000
    11  H    3.765213   3.289370   2.584495   3.068420   2.614933
    12  H    2.173229   2.100412   3.002786   3.043318   3.166005
                   11         12
    11  H    0.000000
    12  H    2.041456   0.000000
 Symmetry turned off by external request.
 Stoichiometry    B2H8N2
 Framework group  C1[X(B2H8N2)]
 Deg. of freedom    30
 Full point group                 C1      NOp   1
 Rotational constants (GHZ):          14.0865296           4.4798898           4.1687434
 Standard basis: 6-31G(d,p) (6D, 7F)
   100 basis functions,   168 primitive gaussians,   100 cartesian basis functions
    16 alpha electrons       16 beta electrons
       nuclear repulsion energy       113.3146686860 Hartrees.
 NAtoms=   12 NActive=   12 NUniq=   12 SFac= 1.00D+00 NAtFMM=   60 NAOKFM=F Big=F
 Integral buffers will be    131072 words long.
 Raffenetti 2 integral format.
 Two-electron integral symmetry is turned off.
 One-electron integrals computed using PRISM.
 NBasis=   100 RedAO= T EigKep=  5.82D-03  NBF=   100
 NBsUse=   100 1.00D-06 EigRej= -1.00D+00 NBFU=   100
 Initial guess from the checkpoint file:  "/scratch/1311824/Gau-10365.chk"
 B after Tr=    -0.003967   -0.006912   -0.009240
         Rot=    1.000000    0.000340   -0.000080    0.000096 Ang=   0.04 deg.
 Initial guess <Sx>= 0.0000 <Sy>= 0.0000 <Sz>= 0.0000 <S**2>=-0.0000 S=-0.0000
 ExpMin= 1.27D-01 ExpMax= 4.17D+03 ExpMxC= 6.27D+02 IAcc=2 IRadAn=         4 AccDes= 0.00D+00
 Harris functional with IExCor=  402 and IRadAn=       4 diagonalized for initial guess.
 HarFok:  IExCor=  402 AccDes= 0.00D+00 IRadAn=         4 IDoV= 1 UseB2=F ITyADJ=14
 ICtDFT=  3500011 ScaDFX=  1.000000  1.000000  1.000000  1.000000
 FoFCou: FMM=F IPFlag=           0 FMFlag=      100000 FMFlg1=           0
         NFxFlg=           0 DoJE=T BraDBF=F KetDBF=T FulRan=T
         wScrn=  0.000000 ICntrl=       500 IOpCl=  0 I1Cent=   200000004 NGrid=           0
         NMat0=    1 NMatS0=      1 NMatT0=    0 NMatD0=    1 NMtDS0=    0 NMtDT0=    0
 Symmetry not used in FoFCou.
 Keep R1 and R2 ints in memory in canonical form, NReq=29209606.
 Requested convergence on RMS density matrix=1.00D-08 within1024 cycles.
 Requested convergence on MAX density matrix=1.00D-06.
 Requested convergence on             energy=1.00D-06.
 No special actions if energy rises.
 Integral accuracy reduced to 1.0D-05 until final iterations.
 Initial convergence to 1.0D-05 achieved.  Increase integral accuracy.
 SCF Done:  E(UB3LYP) =  -164.082604674     A.U. after    9 cycles
            NFock=  9  Conv=0.89D-08     -V/T= 2.0100
 <Sx>= 0.0000 <Sy>= 0.0000 <Sz>= 0.0000 <S**2>=-0.0000 S=-0.0000
 <L.S>= 0.000000000000E+00
 Annihilation of the first spin contaminant:
 S**2 before annihilation    -0.0000,   after     0.0000
 DoSCS=F DFT=T ScalE2(SS,OS)=  1.000000  1.000000
 Range of M.O.s used for correlation:     1   100
 NBasis=   100 NAE=    16 NBE=    16 NFC=     0 NFV=     0
 NROrb=    100 NOA=    16 NOB=    16 NVA=    84 NVB=    84
 Symmetrizing basis deriv contribution to polar:
 IMax=3 JMax=2 DiffMx= 0.00D+00
 Calling FoFJK, ICntrl=      2147 FMM=F ISym2X=0 I1Cent= 0 IOpClX= 1 NMat=1 NMatS=1 NMatT=0.
 -------------------------------------------------------------------
 Center     Atomic                   Forces (Hartrees/Bohr)
 Number     Number              X              Y              Z
 -------------------------------------------------------------------
      1        7          -0.000889324   -0.000104476    0.000284426
      2        5          -0.000577181    0.000348011    0.000284881
      3        7           0.000274615    0.000110514    0.000045901
      4        5           0.000921422   -0.000532987   -0.000540997
      5        1           0.000036306   -0.000040074   -0.000020129
      6        1           0.000026054   -0.000006818    0.000003232
      7        1          -0.000001173   -0.000000973   -0.000011197
      8        1          -0.000006825    0.000026100   -0.000023152
      9        1           0.000057032    0.000040204    0.000017336
     10        1           0.000000118    0.000042855    0.000053488
     11        1           0.000047759    0.000108174   -0.000008824
     12        1           0.000111196    0.000009469   -0.000084966
 -------------------------------------------------------------------
 Cartesian Forces:  Max     0.000921422 RMS     0.000287841
 IRC-IRC-IRC-IRC-IRC-IRC-IRC-IRC-IRC-IRC-IRC-IRC-IRC-IRC-IRC-IRC-IRC-IRC
 Pt  1 Step number   1 out of a maximum of  20
 Modified Bulirsch-Stoer Extrapolation Cycles:
    EPS =    0.000010000000000
      PEZero:  N= 2 I= 1 D=  2.84D-04 Err=  5.02D-04
      PEZero:  N= 3 I= 2 D=  2.84D-04 Err=  3.07D-04
      PEZero:  N= 3 I= 1 D=  5.69D-04 Err=  4.09D-05
      PEZero:  N= 4 I= 3 D=  1.42D-04 Err=  2.30D-04
      PEZero:  N= 4 I= 2 D=  4.27D-04 Err=  1.11D-06
      PEZero:  N= 4 I= 1 D=  7.11D-04 Err=  2.32D-05
 Maximum DWI energy   std dev =  0.000000065 at pt    73
 Maximum DWI gradient std dev =  0.103450998 at pt     2
 CORRECTOR INTEGRATION CONVERGENCE:
   Recorrection delta-x convergence threshold:    0.010000
   Delta-x Convergence Met
 Point Number:   1          Path Number:   1
   CHANGE IN THE REACTION COORDINATE =    0.10924
   NET REACTION COORDINATE UP TO THIS POINT =    0.10924
  # OF POINTS ALONG THE PATH =   1
  # OF STEPS =   1

 Calculating another point on the path.
 IRC-IRC-IRC-IRC-IRC-IRC-IRC-IRC-IRC-IRC-IRC-IRC-IRC-IRC-IRC-IRC-IRC-IRC
                          Input orientation:                          
 ---------------------------------------------------------------------
 Center     Atomic      Atomic             Coordinates (Angstroms)
 Number     Number       Type             X           Y           Z
 ---------------------------------------------------------------------
      1          7           0        1.096201   -0.719277   -0.175543
      2          5           0        1.319825    0.716654   -0.142630
      3          7           0       -1.699836    0.029724   -0.245964
      4          5           0       -0.607832    0.104713    0.660236
      5          1           0       -1.850689    0.690051   -0.991261
      6          1           0        1.084153    1.341538   -1.133689
      7          1           0        2.060180    1.151049    0.687278
      8          1           0        1.545045   -1.343899    0.478252
      9          1           0        0.754692   -1.185085   -1.003411
     10          1           0       -2.367853   -0.723319   -0.227911
     11          1           0       -0.588016   -0.514592    1.679790
     12          1           0       -0.027995    1.192702    0.713244
 ---------------------------------------------------------------------
                    Distance matrix (angstroms):
                    1          2          3          4          5
     1  N    0.000000
     2  B    1.453612   0.000000
     3  N    2.895477   3.098532   0.000000
     4  B    2.069110   2.175989   1.421019   0.000000
     5  H    3.366863   3.282231   1.007103   2.148199   0.000000
     6  H    2.272696   1.195081   3.203047   2.758753   3.009655
     7  H    2.274166   1.193973   4.033116   2.865979   4.280760
     8  H    1.009486   2.163816   3.597302   2.601245   4.222254
     9  H    1.009442   2.162622   2.841512   2.507543   3.210030
    10  H    3.464452   3.959768   1.006800   2.138250   1.687535
    11  H    2.514109   2.911536   2.289313   1.193072   3.190615
    12  H    2.389439   1.666061   2.251145   1.233994   2.545626
                    6          7          8          9         10
     6  H    0.000000
     7  H    2.074810   0.000000
     8  H    3.165810   2.556134   0.000000
     9  H    2.551342   3.165478   1.686773   0.000000
    10  H    4.123156   4.894721   4.024246   3.250371   0.000000
    11  H    3.762583   3.282130   2.584839   3.074409   2.617386
    12  H    2.161061   2.088751   2.993998   3.035354   3.167309
                   11         12
    11  H    0.000000
    12  H    2.040267   0.000000
 Symmetry turned off by external request.
 Stoichiometry    B2H8N2
 Framework group  C1[X(B2H8N2)]
 Deg. of freedom    30
 Full point group                 C1      NOp   1
 Rotational constants (GHZ):          14.1162011           4.5079332           4.1896028
 Standard basis: 6-31G(d,p) (6D, 7F)
   100 basis functions,   168 primitive gaussians,   100 cartesian basis functions
    16 alpha electrons       16 beta electrons
       nuclear repulsion energy       113.4737777783 Hartrees.
 NAtoms=   12 NActive=   12 NUniq=   12 SFac= 1.00D+00 NAtFMM=   60 NAOKFM=F Big=F
 Integral buffers will be    131072 words long.
 Raffenetti 2 integral format.
 Two-electron integral symmetry is turned off.
 One-electron integrals computed using PRISM.
 NBasis=   100 RedAO= T EigKep=  5.75D-03  NBF=   100
 NBsUse=   100 1.00D-06 EigRej= -1.00D+00 NBFU=   100
 Initial guess from the checkpoint file:  "/scratch/1311824/Gau-10365.chk"
 B after Tr=     0.000665    0.000327   -0.000229
         Rot=    1.000000    0.000330   -0.000079    0.000091 Ang=   0.04 deg.
 Initial guess <Sx>= 0.0000 <Sy>= 0.0000 <Sz>= 0.0000 <S**2>=-0.0000 S=-0.0000
 ExpMin= 1.27D-01 ExpMax= 4.17D+03 ExpMxC= 6.27D+02 IAcc=2 IRadAn=         4 AccDes= 0.00D+00
 Harris functional with IExCor=  402 and IRadAn=       4 diagonalized for initial guess.
 HarFok:  IExCor=  402 AccDes= 0.00D+00 IRadAn=         4 IDoV= 1 UseB2=F ITyADJ=14
 ICtDFT=  3500011 ScaDFX=  1.000000  1.000000  1.000000  1.000000
 FoFCou: FMM=F IPFlag=           0 FMFlag=      100000 FMFlg1=           0
         NFxFlg=           0 DoJE=T BraDBF=F KetDBF=T FulRan=T
         wScrn=  0.000000 ICntrl=       500 IOpCl=  0 I1Cent=   200000004 NGrid=           0
         NMat0=    1 NMatS0=      1 NMatT0=    0 NMatD0=    1 NMtDS0=    0 NMtDT0=    0
 Symmetry not used in FoFCou.
 Keep R1 and R2 ints in memory in canonical form, NReq=29209606.
 Requested convergence on RMS density matrix=1.00D-08 within1024 cycles.
 Requested convergence on MAX density matrix=1.00D-06.
 Requested convergence on             energy=1.00D-06.
 No special actions if energy rises.
 Integral accuracy reduced to 1.0D-05 until final iterations.
 Initial convergence to 1.0D-05 achieved.  Increase integral accuracy.
 SCF Done:  E(UB3LYP) =  -164.082693603     A.U. after    9 cycles
            NFock=  9  Conv=0.97D-08     -V/T= 2.0101
 <Sx>= 0.0000 <Sy>= 0.0000 <Sz>= 0.0000 <S**2>=-0.0000 S=-0.0000
 <L.S>= 0.000000000000E+00
 Annihilation of the first spin contaminant:
 S**2 before annihilation    -0.0000,   after     0.0000
 DoSCS=F DFT=T ScalE2(SS,OS)=  1.000000  1.000000
 Range of M.O.s used for correlation:     1   100
 NBasis=   100 NAE=    16 NBE=    16 NFC=     0 NFV=     0
 NROrb=    100 NOA=    16 NOB=    16 NVA=    84 NVB=    84
 Symmetrizing basis deriv contribution to polar:
 IMax=3 JMax=2 DiffMx= 0.00D+00
 Calling FoFJK, ICntrl=      2147 FMM=F ISym2X=0 I1Cent= 0 IOpClX= 1 NMat=1 NMatS=1 NMatT=0.
 -------------------------------------------------------------------
 Center     Atomic                   Forces (Hartrees/Bohr)
 Number     Number              X              Y              Z
 -------------------------------------------------------------------
      1        7          -0.001831183   -0.000200475    0.000582847
      2        5          -0.001156104    0.000718765    0.000580887
      3        7           0.000550567    0.000213273    0.000110684
      4        5           0.001886724   -0.001104613   -0.001109511
      5        1           0.000074820   -0.000078939   -0.000050217
      6        1           0.000052982   -0.000014611   -0.000001389
      7        1           0.000001218   -0.000003754   -0.000026230
      8        1          -0.000015950    0.000050903   -0.000043593
      9        1           0.000113317    0.000079399    0.000040023
     10        1           0.000008971    0.000100409    0.000107164
     11        1           0.000094662    0.000221923   -0.000019123
     12        1           0.000219976    0.000017721   -0.000171541
 -------------------------------------------------------------------
 Cartesian Forces:  Max     0.001886724 RMS     0.000589196
 IRC-IRC-IRC-IRC-IRC-IRC-IRC-IRC-IRC-IRC-IRC-IRC-IRC-IRC-IRC-IRC-IRC-IRC
 Pt  2 Step number   1 out of a maximum of  20
 Modified Bulirsch-Stoer Extrapolation Cycles:
    EPS =    0.000010000000000
      PEZero:  N= 2 I= 1 D=  5.69D-04 Err=  5.06D-06
 Maximum DWI energy   std dev =  0.000000204 at pt    46
 Maximum DWI gradient std dev =  0.063954641 at pt    37
 CORRECTOR INTEGRATION CONVERGENCE:
   Recorrection delta-x convergence threshold:    0.010000
   Delta-x Convergence Met
 Point Number:   2          Path Number:   1
   CHANGE IN THE REACTION COORDINATE =    0.10920
   NET REACTION COORDINATE UP TO THIS POINT =    0.21844
  # OF POINTS ALONG THE PATH =   2
  # OF STEPS =   1

 Calculating another point on the path.
 IRC-IRC-IRC-IRC-IRC-IRC-IRC-IRC-IRC-IRC-IRC-IRC-IRC-IRC-IRC-IRC-IRC-IRC
                          Input orientation:                          
 ---------------------------------------------------------------------
 Center     Atomic      Atomic             Coordinates (Angstroms)
 Number     Number       Type             X           Y           Z
 ---------------------------------------------------------------------
      1          7           0        1.089344   -0.719484   -0.173039
      2          5           0        1.314271    0.719794   -0.139824
      3          7           0       -1.697776    0.030492   -0.245527
      4          5           0       -0.598561    0.099972    0.654639
      5          1           0       -1.846472    0.686956   -0.994599
      6          1           0        1.086592    1.341781   -1.134743
      7          1           0        2.060531    1.151368    0.686486
      8          1           0        1.545110   -1.343102    0.477089
      9          1           0        0.758645   -1.184184   -1.006038
     10          1           0       -2.368822   -0.719653   -0.222403
     11          1           0       -0.583046   -0.505849    1.682378
     12          1           0       -0.016706    1.190926    0.703636
 ---------------------------------------------------------------------
                    Distance matrix (angstroms):
                    1          2          3          4          5
     1  N    0.000000
     2  B    1.457126   0.000000
     3  N    2.887171   3.091721   0.000000
     4  B    2.050752   2.162007   1.422463   0.000000
     5  H    3.357387   3.274448   1.007058   2.149841   0.000000
     6  H    2.274576   1.195229   3.203575   2.753855   3.008537
     7  H    2.276417   1.194131   4.031115   2.859584   4.278598
     8  H    1.009598   2.165503   3.595169   2.590234   4.217799
     9  H    1.009552   2.164296   2.843909   2.499783   3.207480
    10  H    3.458518   3.955250   1.006754   2.138881   1.687508
    11  H    2.507010   2.902142   2.290655   1.193108   3.191431
    12  H    2.375200   1.644655   2.252447   1.237391   2.546769
                    6          7          8          9         10
     6  H    0.000000
     7  H    2.074052   0.000000
     8  H    3.164939   2.555755   0.000000
     9  H    2.550414   3.164546   1.686253   0.000000
    10  H    4.125743   4.893462   4.024530   3.257441   0.000000
    11  H    3.760000   3.275159   2.585103   3.080236   2.619714
    12  H    2.149340   2.077685   2.985279   3.027425   3.168645
                   11         12
    11  H    0.000000
    12  H    2.039049   0.000000
 Symmetry turned off by external request.
 Stoichiometry    B2H8N2
 Framework group  C1[X(B2H8N2)]
 Deg. of freedom    30
 Full point group                 C1      NOp   1
 Rotational constants (GHZ):          14.1454441           4.5358962           4.2102764
 Standard basis: 6-31G(d,p) (6D, 7F)
   100 basis functions,   168 primitive gaussians,   100 cartesian basis functions
    16 alpha electrons       16 beta electrons
       nuclear repulsion energy       113.6328754265 Hartrees.
 NAtoms=   12 NActive=   12 NUniq=   12 SFac= 1.00D+00 NAtFMM=   60 NAOKFM=F Big=F
 Integral buffers will be    131072 words long.
 Raffenetti 2 integral format.
 Two-electron integral symmetry is turned off.
 One-electron integrals computed using PRISM.
 NBasis=   100 RedAO= T EigKep=  5.67D-03  NBF=   100
 NBsUse=   100 1.00D-06 EigRej= -1.00D+00 NBFU=   100
 Initial guess from the checkpoint file:  "/scratch/1311824/Gau-10365.chk"
 B after Tr=     0.000671    0.000343   -0.000233
         Rot=    1.000000    0.000358   -0.000079    0.000099 Ang=   0.04 deg.
 Initial guess <Sx>= 0.0000 <Sy>= 0.0000 <Sz>= 0.0000 <S**2>=-0.0000 S=-0.0000
 ExpMin= 1.27D-01 ExpMax= 4.17D+03 ExpMxC= 6.27D+02 IAcc=2 IRadAn=         4 AccDes= 0.00D+00
 Harris functional with IExCor=  402 and IRadAn=       4 diagonalized for initial guess.
 HarFok:  IExCor=  402 AccDes= 0.00D+00 IRadAn=         4 IDoV= 1 UseB2=F ITyADJ=14
 ICtDFT=  3500011 ScaDFX=  1.000000  1.000000  1.000000  1.000000
 FoFCou: FMM=F IPFlag=           0 FMFlag=      100000 FMFlg1=           0
         NFxFlg=           0 DoJE=T BraDBF=F KetDBF=T FulRan=T
         wScrn=  0.000000 ICntrl=       500 IOpCl=  0 I1Cent=   200000004 NGrid=           0
         NMat0=    1 NMatS0=      1 NMatT0=    0 NMatD0=    1 NMtDS0=    0 NMtDT0=    0
 Symmetry not used in FoFCou.
 Keep R1 and R2 ints in memory in canonical form, NReq=29209606.
 Requested convergence on RMS density matrix=1.00D-08 within1024 cycles.
 Requested convergence on MAX density matrix=1.00D-06.
 Requested convergence on             energy=1.00D-06.
 No special actions if energy rises.
 Integral accuracy reduced to 1.0D-05 until final iterations.
 Initial convergence to 1.0D-05 achieved.  Increase integral accuracy.
 SCF Done:  E(UB3LYP) =  -164.082844909     A.U. after   10 cycles
            NFock= 10  Conv=0.41D-08     -V/T= 2.0101
 <Sx>= 0.0000 <Sy>= 0.0000 <Sz>= 0.0000 <S**2>=-0.0000 S=-0.0000
 <L.S>= 0.000000000000E+00
 Annihilation of the first spin contaminant:
 S**2 before annihilation    -0.0000,   after     0.0000
 DoSCS=F DFT=T ScalE2(SS,OS)=  1.000000  1.000000
 Range of M.O.s used for correlation:     1   100
 NBasis=   100 NAE=    16 NBE=    16 NFC=     0 NFV=     0
 NROrb=    100 NOA=    16 NOB=    16 NVA=    84 NVB=    84
 Symmetrizing basis deriv contribution to polar:
 IMax=3 JMax=2 DiffMx= 0.00D+00
 Calling FoFJK, ICntrl=      2147 FMM=F ISym2X=0 I1Cent= 0 IOpClX= 1 NMat=1 NMatS=1 NMatT=0.
 -------------------------------------------------------------------
 Center     Atomic                   Forces (Hartrees/Bohr)
 Number     Number              X              Y              Z
 -------------------------------------------------------------------
      1        7          -0.002817366   -0.000217307    0.000947923
      2        5          -0.001734301    0.001075247    0.000870848
      3        7           0.000838179    0.000329436    0.000175160
      4        5           0.002905104   -0.001655188   -0.001723604
      5        1           0.000118798   -0.000116070   -0.000082745
      6        1           0.000078737   -0.000014107   -0.000011442
      7        1           0.000005791   -0.000002119   -0.000036910
      8        1          -0.000016416    0.000058637   -0.000052086
      9        1           0.000152328    0.000088865    0.000012955
     10        1          -0.000001097    0.000136868    0.000161047
     11        1           0.000142543    0.000310738    0.000001402
     12        1           0.000327701    0.000005002   -0.000262549
 -------------------------------------------------------------------
 Cartesian Forces:  Max     0.002905104 RMS     0.000900855
 IRC-IRC-IRC-IRC-IRC-IRC-IRC-IRC-IRC-IRC-IRC-IRC-IRC-IRC-IRC-IRC-IRC-IRC
 Pt  3 Step number   1 out of a maximum of  20
 Modified Bulirsch-Stoer Extrapolation Cycles:
    EPS =    0.000010000000000
      PEZero:  N= 2 I= 1 D=  5.69D-04 Err=  5.49D-06
 Maximum DWI energy   std dev =  0.000000165 at pt    45
 Maximum DWI gradient std dev =  0.038809235 at pt    28
 CORRECTOR INTEGRATION CONVERGENCE:
   Recorrection delta-x convergence threshold:    0.010000
   Delta-x Convergence Met
 Point Number:   3          Path Number:   1
   CHANGE IN THE REACTION COORDINATE =    0.10921
   NET REACTION COORDINATE UP TO THIS POINT =    0.32766
  # OF POINTS ALONG THE PATH =   3
  # OF STEPS =   1

 Calculating another point on the path.
 IRC-IRC-IRC-IRC-IRC-IRC-IRC-IRC-IRC-IRC-IRC-IRC-IRC-IRC-IRC-IRC-IRC-IRC
                          Input orientation:                          
 ---------------------------------------------------------------------
 Center     Atomic      Atomic             Coordinates (Angstroms)
 Number     Number       Type             X           Y           Z
 ---------------------------------------------------------------------
      1          7           0        1.082412   -0.719681   -0.170503
      2          5           0        1.308848    0.722999   -0.137086
      3          7           0       -1.695718    0.031282   -0.245077
      4          5           0       -0.589326    0.095103    0.649057
      5          1           0       -1.842212    0.683720   -0.998030
      6          1           0        1.089147    1.341940   -1.135868
      7          1           0        2.061065    1.151638    0.685572
      8          1           0        1.545055   -1.342190    0.476018
      9          1           0        0.762595   -1.183164   -1.008570
     10          1           0       -2.369732   -0.715966   -0.216907
     11          1           0       -0.578142   -0.497030    1.684859
     12          1           0       -0.005632    1.189302    0.694220
 ---------------------------------------------------------------------
                    Distance matrix (angstroms):
                    1          2          3          4          5
     1  N    0.000000
     2  B    1.460724   0.000000
     3  N    2.878805   3.085054   0.000000
     4  B    2.032304   2.148334   1.423957   0.000000
     5  H    3.347799   3.266795   1.007013   2.151532   0.000000
     6  H    2.276457   1.195376   3.204186   2.749151   3.007510
     7  H    2.278697   1.194290   4.029234   2.853449   4.276568
     8  H    1.009726   2.167186   3.592912   2.579018   4.213159
     9  H    1.009681   2.165949   2.846243   2.491863   3.204744
    10  H    3.452459   3.950816   1.006711   2.139526   1.687469
    11  H    2.499876   2.892868   2.291887   1.193161   3.192168
    12  H    2.361313   1.623689   2.253814   1.240970   2.548008
                    6          7          8          9         10
     6  H    0.000000
     7  H    2.073279   0.000000
     8  H    3.163951   2.555261   0.000000
     9  H    2.549312   3.163455   1.685686   0.000000
    10  H    4.128355   4.892278   4.024657   3.264426   0.000000
    11  H    3.757415   3.268348   2.585257   3.085922   2.621916
    12  H    2.138004   2.067059   2.976692   3.019645   3.170042
                   11         12
    11  H    0.000000
    12  H    2.037854   0.000000
 Symmetry turned off by external request.
 Stoichiometry    B2H8N2
 Framework group  C1[X(B2H8N2)]
 Deg. of freedom    30
 Full point group                 C1      NOp   1
 Rotational constants (GHZ):          14.1743815           4.5638816           4.2308434
 Standard basis: 6-31G(d,p) (6D, 7F)
   100 basis functions,   168 primitive gaussians,   100 cartesian basis functions
    16 alpha electrons       16 beta electrons
       nuclear repulsion energy       113.7922603184 Hartrees.
 NAtoms=   12 NActive=   12 NUniq=   12 SFac= 1.00D+00 NAtFMM=   60 NAOKFM=F Big=F
 Integral buffers will be    131072 words long.
 Raffenetti 2 integral format.
 Two-electron integral symmetry is turned off.
 One-electron integrals computed using PRISM.
 NBasis=   100 RedAO= T EigKep=  5.59D-03  NBF=   100
 NBsUse=   100 1.00D-06 EigRej= -1.00D+00 NBFU=   100
 Initial guess from the checkpoint file:  "/scratch/1311824/Gau-10365.chk"
 B after Tr=     0.000668    0.000352   -0.000232
         Rot=    1.000000    0.000369   -0.000077    0.000102 Ang=   0.04 deg.
 Initial guess <Sx>= 0.0000 <Sy>= 0.0000 <Sz>= 0.0000 <S**2>= 0.0000 S= 0.0000
 ExpMin= 1.27D-01 ExpMax= 4.17D+03 ExpMxC= 6.27D+02 IAcc=2 IRadAn=         4 AccDes= 0.00D+00
 Harris functional with IExCor=  402 and IRadAn=       4 diagonalized for initial guess.
 HarFok:  IExCor=  402 AccDes= 0.00D+00 IRadAn=         4 IDoV= 1 UseB2=F ITyADJ=14
 ICtDFT=  3500011 ScaDFX=  1.000000  1.000000  1.000000  1.000000
 FoFCou: FMM=F IPFlag=           0 FMFlag=      100000 FMFlg1=           0
         NFxFlg=           0 DoJE=T BraDBF=F KetDBF=T FulRan=T
         wScrn=  0.000000 ICntrl=       500 IOpCl=  0 I1Cent=   200000004 NGrid=           0
         NMat0=    1 NMatS0=      1 NMatT0=    0 NMatD0=    1 NMtDS0=    0 NMtDT0=    0
 Symmetry not used in FoFCou.
 Keep R1 and R2 ints in memory in canonical form, NReq=29209606.
 Requested convergence on RMS density matrix=1.00D-08 within1024 cycles.
 Requested convergence on MAX density matrix=1.00D-06.
 Requested convergence on             energy=1.00D-06.
 No special actions if energy rises.
 Integral accuracy reduced to 1.0D-05 until final iterations.
 Initial convergence to 1.0D-05 achieved.  Increase integral accuracy.
 SCF Done:  E(UB3LYP) =  -164.083060073     A.U. after   10 cycles
            NFock= 10  Conv=0.46D-08     -V/T= 2.0101
 <Sx>= 0.0000 <Sy>= 0.0000 <Sz>= 0.0000 <S**2>=-0.0000 S=-0.0000
 <L.S>= 0.000000000000E+00
 Annihilation of the first spin contaminant:
 S**2 before annihilation    -0.0000,   after     0.0000
 DoSCS=F DFT=T ScalE2(SS,OS)=  1.000000  1.000000
 Range of M.O.s used for correlation:     1   100
 NBasis=   100 NAE=    16 NBE=    16 NFC=     0 NFV=     0
 NROrb=    100 NOA=    16 NOB=    16 NVA=    84 NVB=    84
 Symmetrizing basis deriv contribution to polar:
 IMax=3 JMax=2 DiffMx= 0.00D+00
 Calling FoFJK, ICntrl=      2147 FMM=F ISym2X=0 I1Cent= 0 IOpClX= 1 NMat=1 NMatS=1 NMatT=0.
 -------------------------------------------------------------------
 Center     Atomic                   Forces (Hartrees/Bohr)
 Number     Number              X              Y              Z
 -------------------------------------------------------------------
      1        7          -0.003842273   -0.000228758    0.001321168
      2        5          -0.002290880    0.001453995    0.001153854
      3        7           0.001131584    0.000450642    0.000244087
      4        5           0.003932000   -0.002247700   -0.002346780
      5        1           0.000165207   -0.000154987   -0.000119580
      6        1           0.000107834   -0.000014712   -0.000024564
      7        1           0.000015998   -0.000000997   -0.000049925
      8        1          -0.000022463    0.000070987   -0.000059175
      9        1           0.000190539    0.000104217   -0.000006359
     10        1          -0.000010373    0.000174372    0.000216171
     11        1           0.000190730    0.000400290    0.000023143
     12        1           0.000432097   -0.000007349   -0.000352041
 -------------------------------------------------------------------
 Cartesian Forces:  Max     0.003932000 RMS     0.001219516
 IRC-IRC-IRC-IRC-IRC-IRC-IRC-IRC-IRC-IRC-IRC-IRC-IRC-IRC-IRC-IRC-IRC-IRC
 Pt  4 Step number   1 out of a maximum of  20
 Modified Bulirsch-Stoer Extrapolation Cycles:
    EPS =    0.000010000000000
      PEZero:  N= 2 I= 1 D=  5.69D-04 Err=  5.94D-06
 Maximum DWI energy   std dev =  0.000000111 at pt    44
 Maximum DWI gradient std dev =  0.028118912 at pt    28
 CORRECTOR INTEGRATION CONVERGENCE:
   Recorrection delta-x convergence threshold:    0.010000
   Delta-x Convergence Met
 Point Number:   4          Path Number:   1
   CHANGE IN THE REACTION COORDINATE =    0.10922
   NET REACTION COORDINATE UP TO THIS POINT =    0.43687
  # OF POINTS ALONG THE PATH =   4
  # OF STEPS =   1

 Calculating another point on the path.
 IRC-IRC-IRC-IRC-IRC-IRC-IRC-IRC-IRC-IRC-IRC-IRC-IRC-IRC-IRC-IRC-IRC-IRC
                          Input orientation:                          
 ---------------------------------------------------------------------
 Center     Atomic      Atomic             Coordinates (Angstroms)
 Number     Number       Type             X           Y           Z
 ---------------------------------------------------------------------
      1          7           0        1.075407   -0.719850   -0.167942
      2          5           0        1.303566    0.726273   -0.134414
      3          7           0       -1.693657    0.032087   -0.244616
      4          5           0       -0.580124    0.090095    0.643488
      5          1           0       -1.837886    0.680335   -1.001561
      6          1           0        1.091814    1.342025   -1.137055
      7          1           0        2.061782    1.151856    0.684549
      8          1           0        1.544812   -1.341158    0.475064
      9          1           0        0.766446   -1.182006   -1.010963
     10          1           0       -2.370598   -0.712250   -0.211417
     11          1           0       -0.573286   -0.488175    1.687223
     12          1           0        0.005192    1.187827    0.685012
 ---------------------------------------------------------------------
                    Distance matrix (angstroms):
                    1          2          3          4          5
     1  N    0.000000
     2  B    1.464395   0.000000
     3  N    2.870366   3.078536   0.000000
     4  B    2.013755   2.134980   1.425500   0.000000
     5  H    3.338070   3.259260   1.006972   2.153261   0.000000
     6  H    2.278328   1.195525   3.204876   2.744638   3.006548
     7  H    2.281000   1.194451   4.027475   2.847576   4.274659
     8  H    1.009862   2.168855   3.590462   2.567529   4.208266
     9  H    1.009816   2.167571   2.848406   2.483686   3.201710
    10  H    3.446287   3.946486   1.006672   2.140190   1.687425
    11  H    2.492689   2.883715   2.293012   1.193242   3.192834
    12  H    2.347791   1.603205   2.255223   1.244722   2.549316
                    6          7          8          9         10
     6  H    0.000000
     7  H    2.072498   0.000000
     8  H    3.162848   2.554655   0.000000
     9  H    2.548037   3.162209   1.685069   0.000000
    10  H    4.130998   4.891179   4.024576   3.271236   0.000000
    11  H    3.754828   3.261692   2.585198   3.091357   2.623999
    12  H    2.127076   2.056905   2.968210   3.011967   3.171474
                   11         12
    11  H    0.000000
    12  H    2.036675   0.000000
 Symmetry turned off by external request.
 Stoichiometry    B2H8N2
 Framework group  C1[X(B2H8N2)]
 Deg. of freedom    30
 Full point group                 C1      NOp   1
 Rotational constants (GHZ):          14.2031387           4.5919057           4.2513245
 Standard basis: 6-31G(d,p) (6D, 7F)
   100 basis functions,   168 primitive gaussians,   100 cartesian basis functions
    16 alpha electrons       16 beta electrons
       nuclear repulsion energy       113.9523291027 Hartrees.
 NAtoms=   12 NActive=   12 NUniq=   12 SFac= 1.00D+00 NAtFMM=   60 NAOKFM=F Big=F
 Integral buffers will be    131072 words long.
 Raffenetti 2 integral format.
 Two-electron integral symmetry is turned off.
 One-electron integrals computed using PRISM.
 NBasis=   100 RedAO= T EigKep=  5.52D-03  NBF=   100
 NBsUse=   100 1.00D-06 EigRej= -1.00D+00 NBFU=   100
 Initial guess from the checkpoint file:  "/scratch/1311824/Gau-10365.chk"
 B after Tr=     0.000659    0.000360   -0.000228
         Rot=    1.000000    0.000377   -0.000075    0.000104 Ang=   0.05 deg.
 Initial guess <Sx>= 0.0000 <Sy>= 0.0000 <Sz>= 0.0000 <S**2>= 0.0000 S= 0.0000
 ExpMin= 1.27D-01 ExpMax= 4.17D+03 ExpMxC= 6.27D+02 IAcc=2 IRadAn=         4 AccDes= 0.00D+00
 Harris functional with IExCor=  402 and IRadAn=       4 diagonalized for initial guess.
 HarFok:  IExCor=  402 AccDes= 0.00D+00 IRadAn=         4 IDoV= 1 UseB2=F ITyADJ=14
 ICtDFT=  3500011 ScaDFX=  1.000000  1.000000  1.000000  1.000000
 FoFCou: FMM=F IPFlag=           0 FMFlag=      100000 FMFlg1=           0
         NFxFlg=           0 DoJE=T BraDBF=F KetDBF=T FulRan=T
         wScrn=  0.000000 ICntrl=       500 IOpCl=  0 I1Cent=   200000004 NGrid=           0
         NMat0=    1 NMatS0=      1 NMatT0=    0 NMatD0=    1 NMtDS0=    0 NMtDT0=    0
 Symmetry not used in FoFCou.
 Keep R1 and R2 ints in memory in canonical form, NReq=29209606.
 Requested convergence on RMS density matrix=1.00D-08 within1024 cycles.
 Requested convergence on MAX density matrix=1.00D-06.
 Requested convergence on             energy=1.00D-06.
 No special actions if energy rises.
 Integral accuracy reduced to 1.0D-05 until final iterations.
 Initial convergence to 1.0D-05 achieved.  Increase integral accuracy.
 SCF Done:  E(UB3LYP) =  -164.083339768     A.U. after   10 cycles
            NFock= 10  Conv=0.49D-08     -V/T= 2.0102
 <Sx>= 0.0000 <Sy>= 0.0000 <Sz>= 0.0000 <S**2>= 0.0000 S= 0.0000
 <L.S>= 0.000000000000E+00
 Annihilation of the first spin contaminant:
 S**2 before annihilation     0.0000,   after    -0.0000
 DoSCS=F DFT=T ScalE2(SS,OS)=  1.000000  1.000000
 Range of M.O.s used for correlation:     1   100
 NBasis=   100 NAE=    16 NBE=    16 NFC=     0 NFV=     0
 NROrb=    100 NOA=    16 NOB=    16 NVA=    84 NVB=    84
 Symmetrizing basis deriv contribution to polar:
 IMax=3 JMax=2 DiffMx= 0.00D+00
 Calling FoFJK, ICntrl=      2147 FMM=F ISym2X=0 I1Cent= 0 IOpClX= 1 NMat=1 NMatS=1 NMatT=0.
 -------------------------------------------------------------------
 Center     Atomic                   Forces (Hartrees/Bohr)
 Number     Number              X              Y              Z
 -------------------------------------------------------------------
      1        7          -0.004894258   -0.000223887    0.001705909
      2        5          -0.002813308    0.001850588    0.001421376
      3        7           0.001429672    0.000575555    0.000314987
      4        5           0.004954317   -0.002876350   -0.002967677
      5        1           0.000213285   -0.000198212   -0.000158202
      6        1           0.000139094   -0.000017062   -0.000038887
      7        1           0.000029763   -0.000001423   -0.000065302
      8        1          -0.000032530    0.000083762   -0.000062107
      9        1           0.000224346    0.000119204   -0.000027526
     10        1          -0.000018299    0.000213407    0.000271520
     11        1           0.000238048    0.000490109    0.000041812
     12        1           0.000529869   -0.000015690   -0.000435903
 -------------------------------------------------------------------
 Cartesian Forces:  Max     0.004954317 RMS     0.001540891
 IRC-IRC-IRC-IRC-IRC-IRC-IRC-IRC-IRC-IRC-IRC-IRC-IRC-IRC-IRC-IRC-IRC-IRC
 Pt  5 Step number   1 out of a maximum of  20
 Modified Bulirsch-Stoer Extrapolation Cycles:
    EPS =    0.000010000000000
      PEZero:  N= 2 I= 1 D=  5.69D-04 Err=  6.41D-06
 Maximum DWI energy   std dev =  0.000000062 at pt    36
 Maximum DWI gradient std dev =  0.021871471 at pt    38
 CORRECTOR INTEGRATION CONVERGENCE:
   Recorrection delta-x convergence threshold:    0.010000
   Delta-x Convergence Met
 Point Number:   5          Path Number:   1
   CHANGE IN THE REACTION COORDINATE =    0.10922
   NET REACTION COORDINATE UP TO THIS POINT =    0.54609
  # OF POINTS ALONG THE PATH =   5
  # OF STEPS =   1

 Calculating another point on the path.
 IRC-IRC-IRC-IRC-IRC-IRC-IRC-IRC-IRC-IRC-IRC-IRC-IRC-IRC-IRC-IRC-IRC-IRC
                          Input orientation:                          
 ---------------------------------------------------------------------
 Center     Atomic      Atomic             Coordinates (Angstroms)
 Number     Number       Type             X           Y           Z
 ---------------------------------------------------------------------
      1          7           0        1.068320   -0.719985   -0.165355
      2          5           0        1.298434    0.729612   -0.131811
      3          7           0       -1.691587    0.032905   -0.244146
      4          5           0       -0.570955    0.084945    0.637933
      5          1           0       -1.833486    0.676790   -1.005196
      6          1           0        1.094579    1.342032   -1.138299
      7          1           0        2.062671    1.152014    0.683426
      8          1           0        1.544354   -1.340012    0.474237
      9          1           0        0.770183   -1.180715   -1.013217
     10          1           0       -2.371421   -0.708500   -0.205930
     11          1           0       -0.568476   -0.479315    1.689450
     12          1           0        0.015722    1.186517    0.676049
 ---------------------------------------------------------------------
                    Distance matrix (angstroms):
                    1          2          3          4          5
     1  N    0.000000
     2  B    1.468131   0.000000
     3  N    2.861842   3.072173   0.000000
     4  B    1.995096   2.121961   1.427091   0.000000
     5  H    3.328182   3.251848   1.006936   2.155027   0.000000
     6  H    2.280180   1.195673   3.205627   2.740305   3.005633
     7  H    2.283318   1.194610   4.025822   2.841952   4.272859
     8  H    1.010010   2.170510   3.587797   2.555744   4.203096
     9  H    1.009964   2.169165   2.850378   2.475246   3.198356
    10  H    3.440000   3.942270   1.006636   2.140873   1.687373
    11  H    2.485423   2.874691   2.294023   1.193349   3.193422
    12  H    2.334667   1.583272   2.256653   1.248641   2.550682
                    6          7          8          9         10
     6  H    0.000000
     7  H    2.071712   0.000000
     8  H    3.161634   2.553939   0.000000
     9  H    2.546592   3.160814   1.684409   0.000000
    10  H    4.133660   4.890157   4.024267   3.277861   0.000000
    11  H    3.752229   3.255189   2.584878   3.096511   2.625948
    12  H    2.116596   2.047253   2.959863   3.004433   3.172921
                   11         12
    11  H    0.000000
    12  H    2.035500   0.000000
 Symmetry turned off by external request.
 Stoichiometry    B2H8N2
 Framework group  C1[X(B2H8N2)]
 Deg. of freedom    30
 Full point group                 C1      NOp   1
 Rotational constants (GHZ):          14.2317486           4.6199798           4.2717330
 Standard basis: 6-31G(d,p) (6D, 7F)
   100 basis functions,   168 primitive gaussians,   100 cartesian basis functions
    16 alpha electrons       16 beta electrons
       nuclear repulsion energy       114.1132200950 Hartrees.
 NAtoms=   12 NActive=   12 NUniq=   12 SFac= 1.00D+00 NAtFMM=   60 NAOKFM=F Big=F
 Integral buffers will be    131072 words long.
 Raffenetti 2 integral format.
 Two-electron integral symmetry is turned off.
 One-electron integrals computed using PRISM.
 NBasis=   100 RedAO= T EigKep=  5.44D-03  NBF=   100
 NBsUse=   100 1.00D-06 EigRej= -1.00D+00 NBFU=   100
 Initial guess from the checkpoint file:  "/scratch/1311824/Gau-10365.chk"
 B after Tr=     0.000647    0.000367   -0.000222
         Rot=    1.000000    0.000384   -0.000072    0.000106 Ang=   0.05 deg.
 Initial guess <Sx>= 0.0000 <Sy>= 0.0000 <Sz>= 0.0000 <S**2>= 0.0000 S= 0.0000
 ExpMin= 1.27D-01 ExpMax= 4.17D+03 ExpMxC= 6.27D+02 IAcc=2 IRadAn=         4 AccDes= 0.00D+00
 Harris functional with IExCor=  402 and IRadAn=       4 diagonalized for initial guess.
 HarFok:  IExCor=  402 AccDes= 0.00D+00 IRadAn=         4 IDoV= 1 UseB2=F ITyADJ=14
 ICtDFT=  3500011 ScaDFX=  1.000000  1.000000  1.000000  1.000000
 FoFCou: FMM=F IPFlag=           0 FMFlag=      100000 FMFlg1=           0
         NFxFlg=           0 DoJE=T BraDBF=F KetDBF=T FulRan=T
         wScrn=  0.000000 ICntrl=       500 IOpCl=  0 I1Cent=   200000004 NGrid=           0
         NMat0=    1 NMatS0=      1 NMatT0=    0 NMatD0=    1 NMtDS0=    0 NMtDT0=    0
 Symmetry not used in FoFCou.
 Keep R1 and R2 ints in memory in canonical form, NReq=29209606.
 Requested convergence on RMS density matrix=1.00D-08 within1024 cycles.
 Requested convergence on MAX density matrix=1.00D-06.
 Requested convergence on             energy=1.00D-06.
 No special actions if energy rises.
 Integral accuracy reduced to 1.0D-05 until final iterations.
 Initial convergence to 1.0D-05 achieved.  Increase integral accuracy.
 SCF Done:  E(UB3LYP) =  -164.083683729     A.U. after   10 cycles
            NFock= 10  Conv=0.52D-08     -V/T= 2.0102
 <Sx>= 0.0000 <Sy>= 0.0000 <Sz>= 0.0000 <S**2>=-0.0000 S=-0.0000
 <L.S>= 0.000000000000E+00
 Annihilation of the first spin contaminant:
 S**2 before annihilation    -0.0000,   after    -0.0000
 DoSCS=F DFT=T ScalE2(SS,OS)=  1.000000  1.000000
 Range of M.O.s used for correlation:     1   100
 NBasis=   100 NAE=    16 NBE=    16 NFC=     0 NFV=     0
 NROrb=    100 NOA=    16 NOB=    16 NVA=    84 NVB=    84
 Symmetrizing basis deriv contribution to polar:
 IMax=3 JMax=2 DiffMx= 0.00D+00
 Calling FoFJK, ICntrl=      2147 FMM=F ISym2X=0 I1Cent= 0 IOpClX= 1 NMat=1 NMatS=1 NMatT=0.
 -------------------------------------------------------------------
 Center     Atomic                   Forces (Hartrees/Bohr)
 Number     Number              X              Y              Z
 -------------------------------------------------------------------
      1        7          -0.005960182   -0.000205068    0.002091203
      2        5          -0.003290822    0.002257852    0.001667983
      3        7           0.001730900    0.000701240    0.000387357
      4        5           0.005956572   -0.003531884   -0.003578060
      5        1           0.000262834   -0.000245268   -0.000198623
      6        1           0.000171435   -0.000020941   -0.000054274
      7        1           0.000046910   -0.000003251   -0.000082241
      8        1          -0.000048994    0.000099185   -0.000061496
      9        1           0.000253551    0.000137988   -0.000043023
     10        1          -0.000025161    0.000253152    0.000326513
     11        1           0.000284177    0.000577355    0.000057102
     12        1           0.000618779   -0.000020361   -0.000512441
 -------------------------------------------------------------------
 Cartesian Forces:  Max     0.005960182 RMS     0.001860332
 IRC-IRC-IRC-IRC-IRC-IRC-IRC-IRC-IRC-IRC-IRC-IRC-IRC-IRC-IRC-IRC-IRC-IRC
 Pt  6 Step number   1 out of a maximum of  20
 Modified Bulirsch-Stoer Extrapolation Cycles:
    EPS =    0.000010000000000
      PEZero:  N= 2 I= 1 D=  5.69D-04 Err=  6.83D-06
 Maximum DWI energy   std dev =  0.000000057 at pt    22
 Maximum DWI gradient std dev =  0.018084894 at pt    38
 CORRECTOR INTEGRATION CONVERGENCE:
   Recorrection delta-x convergence threshold:    0.010000
   Delta-x Convergence Met
 Point Number:   6          Path Number:   1
   CHANGE IN THE REACTION COORDINATE =    0.10922
   NET REACTION COORDINATE UP TO THIS POINT =    0.65531
  # OF POINTS ALONG THE PATH =   6
  # OF STEPS =   1

 Calculating another point on the path.
 IRC-IRC-IRC-IRC-IRC-IRC-IRC-IRC-IRC-IRC-IRC-IRC-IRC-IRC-IRC-IRC-IRC-IRC
                          Input orientation:                          
 ---------------------------------------------------------------------
 Center     Atomic      Atomic             Coordinates (Angstroms)
 Number     Number       Type             X           Y           Z
 ---------------------------------------------------------------------
      1          7           0        1.061151   -0.720075   -0.162744
      2          5           0        1.293460    0.733016   -0.129282
      3          7           0       -1.689502    0.033733   -0.243667
      4          5           0       -0.561819    0.079651    0.632394
      5          1           0       -1.829000    0.673069   -1.008941
      6          1           0        1.097427    1.341963   -1.139596
      7          1           0        2.063723    1.152110    0.682208
      8          1           0        1.543643   -1.338751    0.473556
      9          1           0        0.773755   -1.179289   -1.015311
     10          1           0       -2.372207   -0.704710   -0.200440
     11          1           0       -0.563706   -0.470482    1.691524
     12          1           0        0.025925    1.185380    0.667359
 ---------------------------------------------------------------------
                    Distance matrix (angstroms):
                    1          2          3          4          5
     1  N    0.000000
     2  B    1.471924   0.000000
     3  N    2.853221   3.065966   0.000000
     4  B    1.976319   2.109288   1.428727   0.000000
     5  H    3.318113   3.244557   1.006904   2.156821   0.000000
     6  H    2.282007   1.195818   3.206420   2.736143   3.004740
     7  H    2.285645   1.194764   4.024266   2.836569   4.271155
     8  H    1.010167   2.172147   3.584878   2.543632   4.197611
     9  H    1.010120   2.170726   2.852104   2.466499   3.194622
    10  H    3.433599   3.938176   1.006604   2.141574   1.687312
    11  H    2.478057   2.865799   2.294910   1.193484   3.193930
    12  H    2.321965   1.563942   2.258086   1.252719   2.552096
                    6          7          8          9         10
     6  H    0.000000
     7  H    2.070928   0.000000
     8  H    3.160315   2.553117   0.000000
     9  H    2.544980   3.159274   1.683710   0.000000
    10  H    4.136332   4.889205   4.023700   3.284253   0.000000
    11  H    3.749607   3.248832   2.584232   3.101316   2.627749
    12  H    2.106590   2.038124   2.951655   2.997047   3.174359
                   11         12
    11  H    0.000000
    12  H    2.034320   0.000000
 Symmetry turned off by external request.
 Stoichiometry    B2H8N2
 Framework group  C1[X(B2H8N2)]
 Deg. of freedom    30
 Full point group                 C1      NOp   1
 Rotational constants (GHZ):          14.2602792           4.6481202           4.2920855
 Standard basis: 6-31G(d,p) (6D, 7F)
[...]
 One-electron integrals computed using PRISM.
 NBasis=   100 RedAO= T EigKep=  3.96D-03  NBF=   100
 NBsUse=   100 1.00D-06 EigRej= -1.00D+00 NBFU=   100
 Initial guess from the checkpoint file:  "/scratch/1311824/Gau-10365.chk"
 B after Tr=     0.000291   -0.000234   -0.000428
         Rot=    1.000000    0.000072    0.000204   -0.000125 Ang=   0.03 deg.
 Initial guess <Sx>= 0.0000 <Sy>= 0.0000 <Sz>= 0.0000 <S**2>=-0.0000 S=-0.0000
 ExpMin= 1.27D-01 ExpMax= 4.17D+03 ExpMxC= 6.27D+02 IAcc=2 IRadAn=         4 AccDes= 0.00D+00
 Harris functional with IExCor=  402 and IRadAn=       4 diagonalized for initial guess.
 HarFok:  IExCor=  402 AccDes= 0.00D+00 IRadAn=         4 IDoV= 1 UseB2=F ITyADJ=14
 ICtDFT=  3500011 ScaDFX=  1.000000  1.000000  1.000000  1.000000
 FoFCou: FMM=F IPFlag=           0 FMFlag=      100000 FMFlg1=           0
         NFxFlg=           0 DoJE=T BraDBF=F KetDBF=T FulRan=T
         wScrn=  0.000000 ICntrl=       500 IOpCl=  0 I1Cent=   200000004 NGrid=           0
         NMat0=    1 NMatS0=      1 NMatT0=    0 NMatD0=    1 NMtDS0=    0 NMtDT0=    0
 Symmetry not used in FoFCou.
 Keep R1 and R2 ints in memory in canonical form, NReq=29209606.
 Requested convergence on RMS density matrix=1.00D-08 within1024 cycles.
 Requested convergence on MAX density matrix=1.00D-06.
 Requested convergence on             energy=1.00D-06.
 No special actions if energy rises.
 Integral accuracy reduced to 1.0D-05 until final iterations.
 Initial convergence to 1.0D-05 achieved.  Increase integral accuracy.
 SCF Done:  E(UB3LYP) =  -164.096999156     A.U. after    9 cycles
            NFock=  9  Conv=0.47D-08     -V/T= 2.0100
 <Sx>= 0.0000 <Sy>= 0.0000 <Sz>= 0.0000 <S**2>=-0.0000 S=-0.0000
 <L.S>= 0.000000000000E+00
 Annihilation of the first spin contaminant:
 S**2 before annihilation    -0.0000,   after     0.0000
 DoSCS=F DFT=T ScalE2(SS,OS)=  1.000000  1.000000
 Range of M.O.s used for correlation:     1   100
 NBasis=   100 NAE=    16 NBE=    16 NFC=     0 NFV=     0
 NROrb=    100 NOA=    16 NOB=    16 NVA=    84 NVB=    84
 Symmetrizing basis deriv contribution to polar:
 IMax=3 JMax=2 DiffMx= 0.00D+00
 Calling FoFJK, ICntrl=      2147 FMM=F ISym2X=0 I1Cent= 0 IOpClX= 1 NMat=1 NMatS=1 NMatT=0.
 -------------------------------------------------------------------
 Center     Atomic                   Forces (Hartrees/Bohr)
 Number     Number              X              Y              Z
 -------------------------------------------------------------------
      1        7          -0.002323436    0.000502053   -0.000090436
      2        5          -0.000015186    0.001337065    0.000326711
      3        7           0.003644220    0.003209460   -0.004054117
      4        5           0.000573270   -0.001734198    0.000080408
      5        1           0.000521667   -0.002342997    0.002363253
      6        1          -0.000097951    0.000079384    0.000016801
      7        1           0.000215872   -0.000074201   -0.000108368
      8        1           0.000013023    0.000000756   -0.000142064
      9        1           0.000090757    0.000053715   -0.000037889
     10        1          -0.002637843   -0.000944150    0.001400273
     11        1          -0.000155555   -0.000050489    0.000071200
     12        1           0.000171163   -0.000036400    0.000174228
 -------------------------------------------------------------------
 Cartesian Forces:  Max     0.004054117 RMS     0.001416917
 IRC-IRC-IRC-IRC-IRC-IRC-IRC-IRC-IRC-IRC-IRC-IRC-IRC-IRC-IRC-IRC-IRC-IRC
 Error in corrector energy =          -0.0000564115
 Magnitude of corrector gradient =     0.0045576391
 Magnitude of analytic gradient =      0.0085015029
 Magnitude of difference =             0.0075530572
 Angle between gradients (degrees)=   62.3195
 Pt 29 Step number  18 out of a maximum of  20
 Modified Bulirsch-Stoer Extrapolation Cycles:
    EPS =    0.000010000000000
      PEZero:  N= 2 I= 1 D=  5.68D-04 Err=  1.19D-04
      PEZero:  N= 3 I= 2 D=  5.68D-04 Err=  7.93D-05
      PEZero:  N= 3 I= 1 D=  1.14D-03 Err=  3.70D-07
 Maximum DWI energy   std dev =  0.000008773 at pt    -1
 Maximum DWI gradient std dev =  0.449190073 at pt    29
 CORRECTOR INTEGRATION CONVERGENCE:
   Recorrection delta-x convergence threshold:    0.010000
   Delta-x Convergence NOT Met
 IRC-IRC-IRC-IRC-IRC-IRC-IRC-IRC-IRC-IRC-IRC-IRC-IRC-IRC-IRC-IRC-IRC-IRC
                          Input orientation:                          
 ---------------------------------------------------------------------
 Center     Atomic      Atomic             Coordinates (Angstroms)
 Number     Number       Type             X           Y           Z
 ---------------------------------------------------------------------
      1          7           0        0.900068   -0.708474   -0.116193
      2          5           0        1.228790    0.822368   -0.092117
      3          7           0       -1.627195    0.052174   -0.235342
      4          5           0       -0.402941   -0.056905    0.537806
      5          1           0       -1.653102    0.409694   -1.174497
      6          1           0        1.148054    1.333456   -1.171977
      7          1           0        2.132266    1.125632    0.630421
      8          1           0        1.456336   -1.305272    0.482961
      9          1           0        0.763226   -1.129703   -1.025977
     10          1           0       -2.416361   -0.537398   -0.011573
     11          1           0       -0.487315   -0.342322    1.697382
     12          1           0        0.169993    1.207629    0.574739
 ---------------------------------------------------------------------
                    Distance matrix (angstroms):
                    1          2          3          4          5
     1  N    0.000000
     2  B    1.565923   0.000000
     3  N    2.641939   2.961480   0.000000
     4  B    1.596900   1.957670   1.452052   0.000000
     5  H    2.981440   3.105986   1.005238   2.170852   0.000000
     6  H    2.312068   1.197426   3.197027   2.694819   2.949546
     7  H    2.332314   1.195951   4.004424   2.798972   4.254328
     8  H    1.012219   2.215704   3.444820   2.240165   3.918785
     9  H    1.011863   2.213465   2.781376   2.226266   2.868875
    10  H    3.322485   3.891346   1.010173   2.141623   1.682836
    11  H    2.312563   2.739311   2.278240   1.197162   3.189400
    12  H    2.163758   1.309265   2.284993   1.388764   2.649566
                    6          7          8          9         10
     6  H    0.000000
     7  H    2.064099   0.000000
     8  H    3.129975   2.527434   0.000000
     9  H    2.497311   3.115199   1.669767   0.000000
    10  H    4.189473   4.885471   3.978941   3.389633   0.000000
    11  H    3.703497   3.186769   2.485934   3.098468   2.584530
    12  H    2.005855   1.964775   2.824496   2.894364   3.174603
                   11         12
    11  H    0.000000
    12  H    2.023544   0.000000
 Symmetry turned off by external request.
 Stoichiometry    B2H8N2
 Framework group  C1[X(B2H8N2)]
 Deg. of freedom    30
 Full point group                 C1      NOp   1
 Rotational constants (GHZ):          14.6908198           5.2409879           4.7163336
 Standard basis: 6-31G(d,p) (6D, 7F)
   100 basis functions,   168 primitive gaussians,   100 cartesian basis functions
    16 alpha electrons       16 beta electrons
       nuclear repulsion energy       117.8649624348 Hartrees.
 NAtoms=   12 NActive=   12 NUniq=   12 SFac= 1.00D+00 NAtFMM=   60 NAOKFM=F Big=F
 Integral buffers will be    131072 words long.
 Raffenetti 2 integral format.
 Two-electron integral symmetry is turned off.
 One-electron integrals computed using PRISM.
 NBasis=   100 RedAO= T EigKep=  3.95D-03  NBF=   100
 NBsUse=   100 1.00D-06 EigRej= -1.00D+00 NBFU=   100
 Initial guess from the checkpoint file:  "/scratch/1311824/Gau-10365.chk"
 B after Tr=    -0.000297    0.000237    0.000434
         Rot=    1.000000   -0.000071   -0.000204    0.000123 Ang=  -0.03 deg.
 Initial guess <Sx>= 0.0000 <Sy>= 0.0000 <Sz>= 0.0000 <S**2>= 0.0000 S= 0.0000
 ExpMin= 1.27D-01 ExpMax= 4.17D+03 ExpMxC= 6.27D+02 IAcc=2 IRadAn=         4 AccDes= 0.00D+00
 Harris functional with IExCor=  402 and IRadAn=       4 diagonalized for initial guess.
 HarFok:  IExCor=  402 AccDes= 0.00D+00 IRadAn=         4 IDoV= 1 UseB2=F ITyADJ=14
 ICtDFT=  3500011 ScaDFX=  1.000000  1.000000  1.000000  1.000000
 FoFCou: FMM=F IPFlag=           0 FMFlag=      100000 FMFlg1=           0
         NFxFlg=           0 DoJE=T BraDBF=F KetDBF=T FulRan=T
         wScrn=  0.000000 ICntrl=       500 IOpCl=  0 I1Cent=   200000004 NGrid=           0
         NMat0=    1 NMatS0=      1 NMatT0=    0 NMatD0=    1 NMtDS0=    0 NMtDT0=    0
 Symmetry not used in FoFCou.
 Keep R1 and R2 ints in memory in canonical form, NReq=29209606.
 Requested convergence on RMS density matrix=1.00D-08 within1024 cycles.
 Requested convergence on MAX density matrix=1.00D-06.
 Requested convergence on             energy=1.00D-06.
 No special actions if energy rises.
 Integral accuracy reduced to 1.0D-05 until final iterations.
 Initial convergence to 1.0D-05 achieved.  Increase integral accuracy.
 SCF Done:  E(UB3LYP) =  -164.096997954     A.U. after    9 cycles
            NFock=  9  Conv=0.51D-08     -V/T= 2.0100
 <Sx>= 0.0000 <Sy>= 0.0000 <Sz>= 0.0000 <S**2>= 0.0000 S= 0.0000
 <L.S>= 0.000000000000E+00
 Annihilation of the first spin contaminant:
 S**2 before annihilation     0.0000,   after     0.0000
 DoSCS=F DFT=T ScalE2(SS,OS)=  1.000000  1.000000
 Range of M.O.s used for correlation:     1   100
 NBasis=   100 NAE=    16 NBE=    16 NFC=     0 NFV=     0
 NROrb=    100 NOA=    16 NOB=    16 NVA=    84 NVB=    84
 Symmetrizing basis deriv contribution to polar:
 IMax=3 JMax=2 DiffMx= 0.00D+00
 Calling FoFJK, ICntrl=      2147 FMM=F ISym2X=0 I1Cent= 0 IOpClX= 1 NMat=1 NMatS=1 NMatT=0.
 -------------------------------------------------------------------
 Center     Atomic                   Forces (Hartrees/Bohr)
 Number     Number              X              Y              Z
 -------------------------------------------------------------------
      1        7          -0.002410097    0.000891761    0.000537544
      2        5           0.000526263    0.001216229    0.000146383
      3        7          -0.000751214   -0.002526150    0.003059793
      4        5           0.000433005   -0.001804243    0.000028016
      5        1           0.000244072   -0.000387804   -0.003134018
      6        1          -0.000100237    0.000076208    0.000013218
      7        1           0.000105429   -0.000104876   -0.000189321
      8        1           0.000152345   -0.000137264   -0.000113767
      9        1           0.000068324   -0.000326389   -0.000739941
     10        1           0.002132008    0.002793391   -0.000123052
     11        1          -0.000159211   -0.000038602    0.000003992
     12        1          -0.000240687    0.000347740    0.000511152
 -------------------------------------------------------------------
 Cartesian Forces:  Max     0.003134018 RMS     0.001202686
 IRC-IRC-IRC-IRC-IRC-IRC-IRC-IRC-IRC-IRC-IRC-IRC-IRC-IRC-IRC-IRC-IRC-IRC
 Error in corrector energy =          -0.0000563754
 Magnitude of corrector gradient =     0.0050952008
 Magnitude of analytic gradient =      0.0072161175
 Magnitude of difference =             0.0075918843
 Angle between gradients (degrees)=   73.8965
 Pt 29 Step number  19 out of a maximum of  20
 Modified Bulirsch-Stoer Extrapolation Cycles:
    EPS =    0.000010000000000
      PEZero:  N= 2 I= 1 D=  5.68D-04 Err=  9.63D-05
      PEZero:  N= 3 I= 2 D=  5.68D-04 Err=  6.41D-05
      PEZero:  N= 3 I= 1 D=  1.14D-03 Err=  3.53D-07
 Maximum DWI energy   std dev =  0.000011484 at pt    -1
 Maximum DWI gradient std dev =  0.480215860 at pt    58
 CORRECTOR INTEGRATION CONVERGENCE:
   Recorrection delta-x convergence threshold:    0.010000
   Delta-x Convergence NOT Met
 IRC-IRC-IRC-IRC-IRC-IRC-IRC-IRC-IRC-IRC-IRC-IRC-IRC-IRC-IRC-IRC-IRC-IRC
                          Input orientation:                          
 ---------------------------------------------------------------------
 Center     Atomic      Atomic             Coordinates (Angstroms)
 Number     Number       Type             X           Y           Z
 ---------------------------------------------------------------------
      1          7           0        0.900122   -0.708478   -0.116139
      2          5           0        1.229050    0.822244   -0.092236
      3          7           0       -1.628256    0.052781   -0.234103
      4          5           0       -0.403175   -0.056686    0.537893
      5          1           0       -1.648836    0.404333   -1.182857
      6          1           0        1.147920    1.333441   -1.171984
      7          1           0        2.131830    1.125733    0.630525
      8          1           0        1.456984   -1.305381    0.482715
      9          1           0        0.764596   -1.130136   -1.026834
     10          1           0       -2.408261   -0.540826   -0.019347
     11          1           0       -0.487518   -0.342741    1.697166
     12          1           0        0.168598    1.208455    0.575786
 ---------------------------------------------------------------------
                    Distance matrix (angstroms):
                    1          2          3          4          5
     1  N    0.000000
     2  B    1.565847   0.000000
     3  N    2.643128   2.962498   0.000000
     4  B    1.597239   1.957994   1.452165   0.000000
     5  H    2.978828   3.105854   1.012002   2.173750   0.000000
     6  H    2.312065   1.197397   3.197946   2.694815   2.947067
     7  H    2.332154   1.195617   4.004628   2.798740   4.254669
     8  H    1.012430   2.215696   3.446322   2.241088   3.917061
     9  H    1.012684   2.213816   2.784503   2.228083   2.864191
    10  H    3.314042   3.885010   1.003443   2.136651   1.680419
    11  H    2.312441   2.739664   2.277613   1.197020   3.193949
    12  H    2.165299   1.311476   2.284773   1.388864   2.653772
                    6          7          8          9         10
     6  H    0.000000
     7  H    2.064040   0.000000
     8  H    3.130004   2.527366   0.000000
     9  H    2.497442   3.115303   1.669985   0.000000
    10  H    4.181850   4.879772   3.971993   3.380731   0.000000
    11  H    3.703548   3.186710   2.486495   3.099671   2.583584
    12  H    2.007334   1.965736   2.826300   2.897001   3.170863
                   11         12
    11  H    0.000000
    12  H    2.023411   0.000000
 Symmetry turned off by external request.
 Stoichiometry    B2H8N2
 Framework group  C1[X(B2H8N2)]
 Deg. of freedom    30
 Full point group                 C1      NOp   1
 Rotational constants (GHZ):          14.6833635           5.2397430           4.7160383
 Standard basis: 6-31G(d,p) (6D, 7F)
   100 basis functions,   168 primitive gaussians,   100 cartesian basis functions
    16 alpha electrons       16 beta electrons
       nuclear repulsion energy       117.8508178570 Hartrees.
 NAtoms=   12 NActive=   12 NUniq=   12 SFac= 1.00D+00 NAtFMM=   60 NAOKFM=F Big=F
 Integral buffers will be    131072 words long.
 Raffenetti 2 integral format.
 Two-electron integral symmetry is turned off.
 One-electron integrals computed using PRISM.
 NBasis=   100 RedAO= T EigKep=  3.96D-03  NBF=   100
 NBsUse=   100 1.00D-06 EigRej= -1.00D+00 NBFU=   100
 Initial guess from the checkpoint file:  "/scratch/1311824/Gau-10365.chk"
 B after Tr=     0.000307   -0.000244   -0.000442
         Rot=    1.000000    0.000073    0.000205   -0.000123 Ang=   0.03 deg.
 Initial guess <Sx>= 0.0000 <Sy>= 0.0000 <Sz>= 0.0000 <S**2>= 0.0000 S= 0.0000
 ExpMin= 1.27D-01 ExpMax= 4.17D+03 ExpMxC= 6.27D+02 IAcc=2 IRadAn=         4 AccDes= 0.00D+00
 Harris functional with IExCor=  402 and IRadAn=       4 diagonalized for initial guess.
 HarFok:  IExCor=  402 AccDes= 0.00D+00 IRadAn=         4 IDoV= 1 UseB2=F ITyADJ=14
 ICtDFT=  3500011 ScaDFX=  1.000000  1.000000  1.000000  1.000000
 FoFCou: FMM=F IPFlag=           0 FMFlag=      100000 FMFlg1=           0
         NFxFlg=           0 DoJE=T BraDBF=F KetDBF=T FulRan=T
         wScrn=  0.000000 ICntrl=       500 IOpCl=  0 I1Cent=   200000004 NGrid=           0
         NMat0=    1 NMatS0=      1 NMatT0=    0 NMatD0=    1 NMtDS0=    0 NMtDT0=    0
 Symmetry not used in FoFCou.
 Keep R1 and R2 ints in memory in canonical form, NReq=29209606.
 Requested convergence on RMS density matrix=1.00D-08 within1024 cycles.
 Requested convergence on MAX density matrix=1.00D-06.
 Requested convergence on             energy=1.00D-06.
 No special actions if energy rises.
 Integral accuracy reduced to 1.0D-05 until final iterations.
 Initial convergence to 1.0D-05 achieved.  Increase integral accuracy.
 SCF Done:  E(UB3LYP) =  -164.096998212     A.U. after    9 cycles
            NFock=  9  Conv=0.44D-08     -V/T= 2.0100
 <Sx>= 0.0000 <Sy>= 0.0000 <Sz>= 0.0000 <S**2>= 0.0000 S= 0.0000
 <L.S>= 0.000000000000E+00
 Annihilation of the first spin contaminant:
 S**2 before annihilation     0.0000,   after     0.0000
 DoSCS=F DFT=T ScalE2(SS,OS)=  1.000000  1.000000
 Range of M.O.s used for correlation:     1   100
 NBasis=   100 NAE=    16 NBE=    16 NFC=     0 NFV=     0
 NROrb=    100 NOA=    16 NOB=    16 NVA=    84 NVB=    84
 Symmetrizing basis deriv contribution to polar:
 IMax=3 JMax=2 DiffMx= 0.00D+00
 Calling FoFJK, ICntrl=      2147 FMM=F ISym2X=0 I1Cent= 0 IOpClX= 1 NMat=1 NMatS=1 NMatT=0.
 -------------------------------------------------------------------
 Center     Atomic                   Forces (Hartrees/Bohr)
 Number     Number              X              Y              Z
 -------------------------------------------------------------------
      1        7          -0.002349346    0.000543224   -0.000015245
      2        5           0.000054388    0.001311733    0.000283885
      3        7           0.003716582    0.003275212   -0.004096553
      4        5           0.000597082   -0.001753453    0.000058591
      5        1           0.000527709   -0.002347394    0.002380385
      6        1          -0.000096834    0.000078655    0.000018802
      7        1           0.000208641   -0.000075899   -0.000113000
      8        1           0.000024614   -0.000011853   -0.000139267
      9        1           0.000092734    0.000013801   -0.000117464
     10        1          -0.002708385   -0.000997528    0.001427778
     11        1          -0.000155779   -0.000047134    0.000084551
     12        1           0.000088592    0.000010638    0.000227537
 -------------------------------------------------------------------
 Cartesian Forces:  Max     0.004096553 RMS     0.001437718
 IRC-IRC-IRC-IRC-IRC-IRC-IRC-IRC-IRC-IRC-IRC-IRC-IRC-IRC-IRC-IRC-IRC-IRC
 Error in corrector energy =          -0.0000579961
 Magnitude of corrector gradient =     0.0045438518
 Magnitude of analytic gradient =      0.0086263108
 Magnitude of difference =             0.0076865458
 Angle between gradients (degrees)=   62.6821
 Pt 29 Step number  20 out of a maximum of  20
 Modified Bulirsch-Stoer Extrapolation Cycles:
    EPS =    0.000010000000000
      PEZero:  N= 2 I= 1 D=  5.68D-04 Err=  1.18D-04
      PEZero:  N= 3 I= 2 D=  5.68D-04 Err=  7.86D-05
      PEZero:  N= 3 I= 1 D=  1.14D-03 Err=  3.70D-07
 Maximum DWI energy   std dev =  0.000009242 at pt    -1
 Maximum DWI gradient std dev =  0.454141296 at pt    29
 CORRECTOR INTEGRATION CONVERGENCE:
   Recorrection delta-x convergence threshold:    0.010000
   Delta-x Convergence NOT Met
 Maximum number of corrector steps exceded.
 Error termination via Lnk1e in /opt/gaussian/g16/legacy/g16/l123.exe at Fri Jul  3 16:44:29 2020.
 Job cpu time:       0 days  1 hours 26 minutes 40.1 seconds.
 Elapsed time:       0 days  0 hours 22 minutes 15.0 seconds.
 File lengths (MBytes):  RWF=     29 Int=      0 D2E=      0 Chk=      4 Scr=      1
