 Entering Gaussian System, Link 0=/opt/gaussian/g16/legacy/g16/g16
 Initial command:
 /opt/gaussian/g16/legacy/g16/l1.exe "/scratch/1311823/Gau-26015.inp" -scrdir="/scratch/1311823/"
 Entering Link 1 = /opt/gaussian/g16/legacy/g16/l1.exe PID=     26025.
  
 Copyright (c) 1988,1990,1992,1993,1995,1998,2003,2009,2016,
            Gaussian, Inc.  All Rights Reserved.
  
 This is part of the Gaussian(R) 16 program.  It is based on
 the Gaussian(R) 09 system (copyright 2009, Gaussian, Inc.),
 the Gaussian(R) 03 system (copyright 2003, Gaussian, Inc.),
 the Gaussian(R) 98 system (copyright 1998, Gaussian, Inc.),
 the Gaussian(R) 94 system (copyright 1995, Gaussian, Inc.),
 the Gaussian 92(TM) system (copyright 1992, Gaussian, Inc.),
 the Gaussian 90(TM) system (copyright 1990, Gaussian, Inc.),
 the Gaussian 88(TM) system (copyright 1988, Gaussian, Inc.),
 the Gaussian 86(TM) system (copyright 1986, Carnegie Mellon
 University), and the Gaussian 82(TM) system (copyright 1983,
 Carnegie Mellon University). Gaussian is a federally registered
 trademark of Gaussian, Inc.
  
 This software contains proprietary and confidential information,
 including trade secrets, belonging to Gaussian, Inc.
  
 This software is provided under written license and may be
 used, copied, transmitted, or stored only in accord with that
 written license.
  
 The following legend is applicable only to US Government
 contracts under FAR:
  
                    RESTRICTED RIGHTS LEGEND
  
 Use, reproduction and disclosure by the US Government is
 subject to restrictions as set forth in subparagraphs (a)
 and (c) of the Commercial Computer Software - Restricted
 Rights clause in FAR 52.227-19.
  
 Gaussian, Inc.
 340 Quinnipiac St., Bldg. 40, Wallingford CT 06492
  
  
 ---------------------------------------------------------------
 Warning -- This program may not be used in any manner that
 competes with the business of Gaussian, Inc. or will provide
 assistance to any competitor of Gaussian, Inc.  The licensee
 of this program is prohibited from giving any competitor of
 Gaussian, Inc. access to this program.  By using this program,
 the user acknowledges that Gaussian, Inc. is engaged in the
 business of creating and licensing software in the field of
 computational chemistry and represents and warrants to the
 licensee that it is not a competitor of Gaussian, Inc. and that
 it will not use this program in any manner prohibited above.
 ---------------------------------------------------------------
  

 Cite this work as:
 Gaussian 16, Revision A.03,
 M. J. Frisch, G. W. Trucks, H. B. Schlegel, G. E. Scuseria, 
 M. A. Robb, J. R. Cheeseman, G. Scalmani, V. Barone, 
 G. A. Petersson, H. Nakatsuji, X. Li, M. Caricato, A. V. Marenich, 
 J. Bloino, B. G. Janesko, R. Gomperts, B. Mennucci, H. P. Hratchian, 
 J. V. Ortiz, A. F. Izmaylov, J. L. Sonnenberg, D. Williams-Young, 
 F. Ding, F. Lipparini, F. Egidi, J. Goings, B. Peng, A. Petrone, 
 T. Henderson, D. Ranasinghe, V. G. Zakrzewski, J. Gao, N. Rega, 
 G. Zheng, W. Liang, M. Hada, M. Ehara, K. Toyota, R. Fukuda, 
 J. Hasegawa, M. Ishida, T. Nakajima, Y. Honda, O. Kitao, H. Nakai, 
 T. Vreven, K. Throssell, J. A. Montgomery, Jr., J. E. Peralta, 
 F. Ogliaro, M. J. Bearpark, J. J. Heyd, E. N. Brothers, K. N. Kudin, 
 V. N. Staroverov, T. A. Keith, R. Kobayashi, J. Normand, 
 K. Raghavachari, A. P. Rendell, J. C. Burant, S. S. Iyengar, 
 J. Tomasi, M. Cossi, J. M. Millam, M. Klene, C. Adamo, R. Cammi, 
 J. W. Ochterski, R. L. Martin, K. Morokuma, O. Farkas, 
 J. B. Foresman, and D. J. Fox, Gaussian, Inc., Wallingford CT, 2016.
 
 ******************************************
 Gaussian 16:  EM64L-G16RevA.03 25-Dec-2016
                 3-Jul-2020 
 ******************************************
 %mem=16GB
 %nprocshared=4
 Will use up to    4 processors via shared memory.
 ----------------------------------------------------------------------
 #irc=(forward calcfc, maxpoint=100, stepsize=5) ub3lyp/6-31G(d,p) scf=
 (maxcycles=1024)
 ----------------------------------------------------------------------
 1/10=4,18=10,22=1,26=3,38=1,39=5,42=100,44=3,172=1/1,23;
 2/12=2,17=6,18=5,29=1,40=1/2;
 3/5=1,6=6,7=101,11=2,25=1,30=1,71=2,74=-5,116=2,140=1/1,2,3;
 4//1;
 5/5=2,7=1024,38=5/2;
 8/6=4,10=90,11=11/1;
 11/6=1,8=1,9=11,15=111,16=1/1,2,10;
 10/6=1,13=1/2;
 6/7=2,8=2,9=2,10=2,28=1/1;
 7/10=1,18=20,25=1/1,2,3,16;
 1/10=4,18=10,22=1,26=3,39=5,42=100,44=3/23(2);
 2/29=1/2;
 99/5=20/99;
 2/29=1/2;
 3/5=1,6=6,7=101,11=2,25=1,30=1,71=2,74=-5,116=2,140=1/1,2,3;
 4/5=5,16=3,69=1/1;
 5/5=2,7=1024,38=5/2;
 8/6=4,10=90,11=11/1;
 11/6=1,8=1,9=11,15=111,16=1/1,2,10;
 10/6=1,13=1/2;
 7/10=1,18=20,25=1/1,2,3,16;
 1/18=10,22=1,26=3,39=5,42=100,44=3/23(-8);
 2/29=1/2;
 6/7=2,8=2,9=2,10=2,19=2,28=1/1;
 99/5=20,9=1/99;
 ---------------
 something title
 ---------------
 Symbolic Z-matrix:
 Charge =  0 Multiplicity = 1
 N                     1.11214  -0.71502  -0.1757 
 B                     1.33386   0.71452  -0.14368 
 N                    -1.70156   0.0321   -0.24201 
 B                    -0.6241    0.11747   0.67627 
 H                    -1.85646   0.69954  -0.98022 
 H                     1.08241   1.34457  -1.12717 
 H                     2.06288   1.15406   0.69306 
 H                     1.54696  -1.34122   0.48564 
 H                     0.74916  -1.18258  -0.99298 
 H                    -2.36331  -0.72669  -0.23416 
 H                    -0.5958   -0.52769   1.67923 
 H                    -0.04869   1.2005    0.73764 
 
 IRC-IRC-IRC-IRC-IRC-IRC-IRC-IRC-IRC-IRC-IRC-IRC-IRC-IRC-IRC-IRC-IRC-IRC
 ------------------------------------------------------------------------
 INPUT DATA FOR L123
 ------------------------------------------------------------------------
 GENERAL PARAMETERS:
 Rxn path following direction = Forward
 Maximum points per path      = 100
 Step size                    =   0.050 bohr
 Integration scheme           = HPC                                 
    Redo corrector integration= Yes                                 
    DWI Weight Power          =  2
    DWI will use Hessian update vectors when possible.
    Max correction cycles     =  20
 Initial Hessian              = CalcFC
 Hessian evaluation           = All updating
 Hessian updating method      = Bofill                              
 ------------------------------------------------------------------------
 IRC-IRC-IRC-IRC-IRC-IRC-IRC-IRC-IRC-IRC-IRC-IRC-IRC-IRC-IRC-IRC-IRC-IRC
                          Input orientation:                          
 ---------------------------------------------------------------------
 Center     Atomic      Atomic             Coordinates (Angstroms)
 Number     Number       Type             X           Y           Z
 ---------------------------------------------------------------------
      1          7           0        1.112140   -0.715020   -0.175700
      2          5           0        1.333860    0.714520   -0.143680
      3          7           0       -1.701560    0.032100   -0.242010
      4          5           0       -0.624100    0.117470    0.676270
      5          1           0       -1.856460    0.699540   -0.980220
      6          1           0        1.082410    1.344570   -1.127170
      7          1           0        2.062880    1.154060    0.693060
      8          1           0        1.546960   -1.341220    0.485640
      9          1           0        0.749160   -1.182580   -0.992980
     10          1           0       -2.363310   -0.726690   -0.234160
     11          1           0       -0.595800   -0.527690    1.679230
     12          1           0       -0.048690    1.200500    0.737640
 ---------------------------------------------------------------------
                    Distance matrix (angstroms):
                    1          2          3          4          5
     1  N    0.000000
     2  B    1.446986   0.000000
     3  N    2.911957   3.112738   0.000000
     4  B    2.105569   2.205084   1.418255   0.000000
     5  H    3.385383   3.298206   1.007186   2.145105   0.000000
     6  H    2.268940   1.194756   3.202589   2.769539   3.012410
     7  H    2.269826   1.193650   4.037841   2.880046   4.285753
     8  H    1.009240   2.160445   3.601162   2.622521   4.230451
     9  H    1.009115   2.159207   2.836447   2.522374   3.214311
    10  H    3.475961   3.969174   1.006845   2.136900   1.687494
    11  H    2.528422   2.930815   2.286314   1.192879   3.188735
    12  H    2.418870   1.710072   2.248745   1.227932   2.543627
                    6          7          8          9         10
     6  H    0.000000
     7  H    2.076259   0.000000
     8  H    3.167086   2.556486   0.000000
     9  H    2.552557   3.166777   1.687593   0.000000
    10  H    4.118321   4.897766   4.023179   3.235910   0.000000
    11  H    3.767974   3.296876   2.584165   3.062434   2.612423
    12  H    2.185786   2.112551   3.011635   3.051341   3.164794
                   11         12
    11  H    0.000000
    12  H    2.042685   0.000000
 Symmetry turned off by external request.
 Stoichiometry    B2H8N2
 Framework group  C1[X(B2H8N2)]
 Deg. of freedom    30
 Full point group                 C1      NOp   1
 Rotational constants (GHZ):          14.0564776           4.4517485           4.1476922
 Standard basis: 6-31G(d,p) (6D, 7F)
   100 basis functions,   168 primitive gaussians,   100 cartesian basis functions
    16 alpha electrons       16 beta electrons
       nuclear repulsion energy       113.1549066159 Hartrees.
 NAtoms=   12 NActive=   12 NUniq=   12 SFac= 1.00D+00 NAtFMM=   60 NAOKFM=F Big=F
 Integral buffers will be    131072 words long.
 Raffenetti 2 integral format.
 Two-electron integral symmetry is turned off.
 One-electron integrals computed using PRISM.
 NBasis=   100 RedAO= T EigKep=  5.90D-03  NBF=   100
 NBsUse=   100 1.00D-06 EigRej= -1.00D+00 NBFU=   100
 ExpMin= 1.27D-01 ExpMax= 4.17D+03 ExpMxC= 6.27D+02 IAcc=3 IRadAn=         5 AccDes= 0.00D+00
 Harris functional with IExCor=  402 and IRadAn=       5 diagonalized for initial guess.
 HarFok:  IExCor=  402 AccDes= 0.00D+00 IRadAn=         5 IDoV= 1 UseB2=F ITyADJ=14
 ICtDFT=  3500011 ScaDFX=  1.000000  1.000000  1.000000  1.000000
 FoFCou: FMM=F IPFlag=           0 FMFlag=      100000 FMFlg1=           0
         NFxFlg=           0 DoJE=T BraDBF=F KetDBF=T FulRan=T
         wScrn=  0.000000 ICntrl=       500 IOpCl=  0 I1Cent=   200000004 NGrid=           0
         NMat0=    1 NMatS0=      1 NMatT0=    0 NMatD0=    1 NMtDS0=    0 NMtDT0=    0
 Symmetry not used in FoFCou.
 Initial guess <Sx>= 0.0000 <Sy>= 0.0000 <Sz>= 0.0000 <S**2>= 0.0000 S= 0.0000
 Keep R1 and R2 ints in memory in canonical form, NReq=29209606.
 Requested convergence on RMS density matrix=1.00D-08 within1024 cycles.
 Requested convergence on MAX density matrix=1.00D-06.
 Requested convergence on             energy=1.00D-06.
 No special actions if energy rises.
 Integral accuracy reduced to 1.0D-05 until final iterations.
 Initial convergence to 1.0D-05 achieved.  Increase integral accuracy.
 SCF Done:  E(UB3LYP) =  -164.082575671     A.U. after   13 cycles
            NFock= 13  Conv=0.31D-08     -V/T= 2.0100
 <Sx>= 0.0000 <Sy>= 0.0000 <Sz>= 0.0000 <S**2>= 0.0000 S= 0.0000
 <L.S>= 0.000000000000E+00
 Annihilation of the first spin contaminant:
 S**2 before annihilation     0.0000,   after    -0.0000
 DoSCS=F DFT=T ScalE2(SS,OS)=  1.000000  1.000000
 Range of M.O.s used for correlation:     1   100
 NBasis=   100 NAE=    16 NBE=    16 NFC=     0 NFV=     0
 NROrb=    100 NOA=    16 NOB=    16 NVA=    84 NVB=    84
 Symmetrizing basis deriv contribution to polar:
 IMax=3 JMax=2 DiffMx= 0.00D+00
 G2DrvN: will do    13 centers at a time, making    1 passes.
 Calling FoFCou, ICntrl=  3107 FMM=F I1Cent=   0 AccDes= 0.00D+00.
 End of G2Drv F.D. properties file   721 does not exist.
 End of G2Drv F.D. properties file   722 does not exist.
 End of G2Drv F.D. properties file   788 does not exist.
          IDoAtm=111111111111
          Differentiating once with respect to nuclear coordinates.
 Keep R1 and R2 ints in memory in canonical form, NReq=29207551.
          There are    39 degrees of freedom in the 1st order CPHF.  IDoFFX=6 NUNeed=     0.
     33 vectors produced by pass  0 Test12= 6.89D-15 2.56D-09 XBig12= 1.41D-01 1.01D-01.
 AX will form    33 AO Fock derivatives at one time.
     33 vectors produced by pass  1 Test12= 6.89D-15 2.56D-09 XBig12= 1.11D-02 1.89D-02.
     33 vectors produced by pass  2 Test12= 6.89D-15 2.56D-09 XBig12= 6.48D-05 1.34D-03.
     33 vectors produced by pass  3 Test12= 6.89D-15 2.56D-09 XBig12= 1.29D-07 4.78D-05.
     33 vectors produced by pass  4 Test12= 6.89D-15 2.56D-09 XBig12= 1.11D-10 1.26D-06.
     12 vectors produced by pass  5 Test12= 6.89D-15 2.56D-09 XBig12= 5.55D-14 2.27D-08.
 InvSVY:  IOpt=1 It=  1 EMax= 1.55D-15
 Solved reduced A of dimension   177 with    33 vectors.
 End of Minotr F.D. properties file   721 does not exist.
 End of Minotr F.D. properties file   722 does not exist.
 End of Minotr F.D. properties file   788 does not exist.

 **********************************************************************

            Population analysis using the SCF density.

 **********************************************************************

 Alpha  occ. eigenvalues --  -14.33725 -14.30598  -6.74275  -6.74198  -0.87173
 Alpha  occ. eigenvalues --   -0.83930  -0.55579  -0.51080  -0.49502  -0.48427
 Alpha  occ. eigenvalues --   -0.40017  -0.39112  -0.32358  -0.31528  -0.30651
 Alpha  occ. eigenvalues --   -0.23420
 Alpha virt. eigenvalues --    0.04489   0.07485   0.08992   0.10646   0.13222
 Alpha virt. eigenvalues --    0.15319   0.18112   0.22702   0.23266   0.24281
 Alpha virt. eigenvalues --    0.26523   0.28106   0.43120   0.44272   0.45756
 Alpha virt. eigenvalues --    0.49441   0.53430   0.56154   0.66186   0.69201
 Alpha virt. eigenvalues --    0.73773   0.74597   0.78906   0.83528   0.83757
 Alpha virt. eigenvalues --    0.88421   0.89061   0.90475   0.91004   0.92961
 Alpha virt. eigenvalues --    0.95233   0.98476   1.03753   1.12244   1.14787
 Alpha virt. eigenvalues --    1.22562   1.26618   1.34287   1.38242   1.44725
 Alpha virt. eigenvalues --    1.48064   1.53044   1.61061   1.69515   1.70506
 Alpha virt. eigenvalues --    1.73158   1.75535   1.83934   2.02787   2.07492
 Alpha virt. eigenvalues --    2.14577   2.15675   2.17633   2.17934   2.23036
 Alpha virt. eigenvalues --    2.27683   2.30166   2.35638   2.39973   2.40866
 Alpha virt. eigenvalues --    2.48236   2.54618   2.56408   2.57979   2.59958
 Alpha virt. eigenvalues --    2.62157   2.64287   2.68291   2.72125   2.72968
 Alpha virt. eigenvalues --    2.95158   2.96282   3.06543   3.13841   3.22762
 Alpha virt. eigenvalues --    3.23746   3.29299   3.30874   3.57291   3.59512
 Alpha virt. eigenvalues --    3.66381   3.68573   4.20887   4.22843
  Beta  occ. eigenvalues --  -14.33725 -14.30598  -6.74275  -6.74198  -0.87173
  Beta  occ. eigenvalues --   -0.83930  -0.55579  -0.51080  -0.49502  -0.48427
  Beta  occ. eigenvalues --   -0.40017  -0.39112  -0.32358  -0.31528  -0.30651
  Beta  occ. eigenvalues --   -0.23420
  Beta virt. eigenvalues --    0.04489   0.07485   0.08992   0.10646   0.13222
  Beta virt. eigenvalues --    0.15319   0.18112   0.22702   0.23266   0.24281
  Beta virt. eigenvalues --    0.26523   0.28106   0.43120   0.44272   0.45756
  Beta virt. eigenvalues --    0.49441   0.53430   0.56154   0.66186   0.69201
  Beta virt. eigenvalues --    0.73773   0.74597   0.78906   0.83528   0.83757
  Beta virt. eigenvalues --    0.88421   0.89061   0.90475   0.91004   0.92961
  Beta virt. eigenvalues --    0.95233   0.98476   1.03753   1.12244   1.14787
  Beta virt. eigenvalues --    1.22562   1.26618   1.34287   1.38242   1.44725
  Beta virt. eigenvalues --    1.48064   1.53044   1.61061   1.69515   1.70506
  Beta virt. eigenvalues --    1.73158   1.75535   1.83934   2.02787   2.07492
  Beta virt. eigenvalues --    2.14577   2.15675   2.17633   2.17934   2.23036
  Beta virt. eigenvalues --    2.27683   2.30166   2.35638   2.39973   2.40866
  Beta virt. eigenvalues --    2.48236   2.54618   2.56408   2.57979   2.59958
  Beta virt. eigenvalues --    2.62157   2.64287   2.68291   2.72125   2.72968
  Beta virt. eigenvalues --    2.95158   2.96282   3.06543   3.13841   3.22762
  Beta virt. eigenvalues --    3.23746   3.29299   3.30874   3.57291   3.59512
  Beta virt. eigenvalues --    3.66381   3.68573   4.20887   4.22843
          Condensed to atoms (all electrons):
               1          2          3          4          5          6
     1  N    6.574312   0.398484  -0.033004   0.059286   0.000305  -0.023882
     2  B    0.398484   3.533364  -0.004274   0.064302  -0.000605   0.409881
     3  N   -0.033004  -0.004274   6.476884   0.478336   0.361567  -0.002315
     4  B    0.059286   0.064302   0.478336   3.501875  -0.038756  -0.005037
     5  H    0.000305  -0.000605   0.361567  -0.038756   0.457693   0.001325
     6  H   -0.023882   0.409881  -0.002315  -0.005037   0.001325   0.733497
     7  H   -0.023453   0.411810   0.000436  -0.008600   0.000011  -0.021462
     8  H    0.352059  -0.031163   0.000651  -0.001695   0.000012   0.003122
     9  H    0.343300  -0.028594   0.007268  -0.001702   0.000167  -0.004421
    10  H   -0.000405   0.000753   0.361438  -0.036509  -0.030761  -0.000035
    11  H   -0.017029  -0.010176  -0.020785   0.404734   0.003319   0.000759
    12  H   -0.054319   0.077395  -0.024053   0.343342  -0.003559  -0.015718
               7          8          9         10         11         12
     1  N   -0.023453   0.352059   0.343300  -0.000405  -0.017029  -0.054319
     2  B    0.411810  -0.031163  -0.028594   0.000753  -0.010176   0.077395
     3  N    0.000436   0.000651   0.007268   0.361438  -0.020785  -0.024053
     4  B   -0.008600  -0.001695  -0.001702  -0.036509   0.404734   0.343342
     5  H    0.000011   0.000012   0.000167  -0.030761   0.003319  -0.003559
     6  H   -0.021462   0.003122  -0.004421  -0.000035   0.000759  -0.015718
     7  H    0.723741  -0.003651   0.003142  -0.000017  -0.000318  -0.011648
     8  H   -0.003651   0.434695  -0.026568   0.000007   0.001367   0.001303
     9  H    0.003142  -0.026568   0.437956   0.000161   0.000704   0.002075
    10  H   -0.000017   0.000007   0.000161   0.460587  -0.002551   0.003086
    11  H   -0.000318   0.001367   0.000704  -0.002551   0.737358  -0.015251
    12  H   -0.011648   0.001303   0.002075   0.003086  -0.015251   0.740859
          Atomic-Atomic Spin Densities.
               1          2          3          4          5          6
     1  N   -0.000000   0.000000  -0.000000   0.000000  -0.000000  -0.000000
     2  B    0.000000  -0.000000   0.000000   0.000000   0.000000  -0.000000
     3  N   -0.000000   0.000000  -0.000000  -0.000000   0.000000   0.000000
     4  B    0.000000   0.000000  -0.000000  -0.000000  -0.000000   0.000000
     5  H   -0.000000   0.000000   0.000000  -0.000000   0.000000  -0.000000
     6  H   -0.000000  -0.000000   0.000000   0.000000  -0.000000  -0.000000
     7  H    0.000000  -0.000000  -0.000000  -0.000000   0.000000   0.000000
     8  H    0.000000   0.000000  -0.000000   0.000000   0.000000   0.000000
     9  H    0.000000   0.000000  -0.000000   0.000000  -0.000000  -0.000000
    10  H   -0.000000   0.000000  -0.000000  -0.000000   0.000000   0.000000
    11  H   -0.000000   0.000000   0.000000  -0.000000  -0.000000   0.000000
    12  H   -0.000000   0.000000  -0.000000  -0.000000  -0.000000   0.000000
               7          8          9         10         11         12
     1  N    0.000000   0.000000   0.000000  -0.000000  -0.000000  -0.000000
     2  B   -0.000000   0.000000   0.000000   0.000000   0.000000   0.000000
     3  N   -0.000000  -0.000000  -0.000000  -0.000000   0.000000  -0.000000
     4  B   -0.000000   0.000000   0.000000  -0.000000  -0.000000  -0.000000
     5  H    0.000000   0.000000  -0.000000   0.000000  -0.000000  -0.000000
     6  H    0.000000   0.000000  -0.000000   0.000000   0.000000   0.000000
     7  H   -0.000000  -0.000000   0.000000  -0.000000  -0.000000  -0.000000
     8  H   -0.000000   0.000000  -0.000000  -0.000000  -0.000000  -0.000000
     9  H    0.000000  -0.000000   0.000000  -0.000000  -0.000000  -0.000000
    10  H   -0.000000  -0.000000  -0.000000   0.000000  -0.000000  -0.000000
    11  H   -0.000000  -0.000000  -0.000000  -0.000000   0.000000   0.000000
    12  H   -0.000000  -0.000000  -0.000000  -0.000000   0.000000  -0.000000
 Mulliken charges and spin densities:
               1          2
     1  N   -0.575653  -0.000000
     2  B    0.178824   0.000000
     3  N   -0.602149  -0.000000
     4  B    0.240423  -0.000000
     5  H    0.249282   0.000000
     6  H   -0.075714  -0.000000
     7  H   -0.069991  -0.000000
     8  H    0.269862   0.000000
     9  H    0.266511   0.000000
    10  H    0.244245  -0.000000
    11  H   -0.082130   0.000000
    12  H   -0.043511  -0.000000
 Sum of Mulliken charges =   0.00000  -0.00000
 Mulliken charges and spin densities with hydrogens summed into heavy atoms:
               1          2
     1  N   -0.039280  -0.000000
     2  B    0.033118  -0.000000
     3  N   -0.108621  -0.000000
     4  B    0.114782  -0.000000
 APT charges:
               1
     1  N   -1.023254
     2  B   -0.391437
     3  N   -1.149634
     4  B   -0.287990
     5  H    0.508802
     6  H    0.138388
     7  H    0.253450
     8  H    0.587759
     9  H    0.432244
    10  H    0.624685
    11  H    0.177902
    12  H    0.129084
 Sum of APT charges =   0.00000
 APT charges with hydrogens summed into heavy atoms:
               1
     1  N   -0.003251
     2  B    0.000401
     3  N   -0.016146
     4  B    0.018996
 Electronic spatial extent (au):  <R**2>=            355.8605
 Charge=              0.0000 electrons
 Dipole moment (field-independent basis, Debye):
    X=             -0.7243    Y=             -2.1730    Z=             -1.3791  Tot=              2.6736
 Quadrupole moment (field-independent basis, Debye-Ang):
   XX=            -25.7951   YY=            -25.5987   ZZ=            -27.6763
   XY=             -2.3001   XZ=              2.8468   YZ=             -0.0753
 Traceless Quadrupole moment (field-independent basis, Debye-Ang):
   XX=              0.5616   YY=              0.7580   ZZ=             -1.3196
   XY=             -2.3001   XZ=              2.8468   YZ=             -0.0753
 Octapole moment (field-independent basis, Debye-Ang**2):
  XXX=            -15.4241  YYY=            -13.3253  ZZZ=             -8.3164  XYY=             -2.8067
  XXY=            -10.6210  XXZ=             -4.9134  XZZ=             -2.4756  YZZ=             -3.6432
  YYZ=             -2.3650  XYZ=              0.5176
 Hexadecapole moment (field-independent basis, Debye-Ang**3):
 XXXX=           -291.7946 YYYY=           -101.0052 ZZZZ=            -87.4470 XXXY=             -5.5828
 XXXZ=             16.7825 YYYX=            -16.0776 YYYZ=              1.4690 ZZZX=              7.8125
 ZZZY=              2.0854 XXYY=            -62.7369 XXZZ=            -62.8507 YYZZ=            -29.8468
 XXYZ=             -5.2302 YYXZ=              4.8693 ZZXY=             -7.8418
 N-N= 1.131549066159D+02 E-N=-6.066728917862D+02  KE= 1.624613138635D+02
  Exact polarizability:   0.000   0.000   0.000   0.000   0.000   0.000
 Approx polarizability:  64.634   1.014  54.555   1.679  -2.188  52.354
                          Isotropic Fermi Contact Couplings
        Atom                 a.u.       MegaHertz       Gauss      10(-4) cm-1
     1  N(14)             -0.00000      -0.00000      -0.00000      -0.00000
     2  B(11)              0.00000       0.00000       0.00000       0.00000
     3  N(14)             -0.00000      -0.00000      -0.00000      -0.00000
     4  B(11)             -0.00000      -0.00000      -0.00000      -0.00000
     5  H(1)               0.00000       0.00000       0.00000       0.00000
     6  H(1)              -0.00000      -0.00000      -0.00000      -0.00000
     7  H(1)              -0.00000      -0.00000      -0.00000      -0.00000
     8  H(1)              -0.00000      -0.00000      -0.00000      -0.00000
     9  H(1)               0.00000       0.00000       0.00000       0.00000
    10  H(1)               0.00000       0.00000       0.00000       0.00000
    11  H(1)               0.00000       0.00000       0.00000       0.00000
    12  H(1)               0.00000       0.00000       0.00000       0.00000
 --------------------------------------------------------
       Center         ----  Spin Dipole Couplings  ----
                      3XX-RR        3YY-RR        3ZZ-RR
 --------------------------------------------------------
     1   Atom        0.000000      0.000000      0.000000
     2   Atom        0.000000      0.000000      0.000000
     3   Atom        0.000000      0.000000      0.000000
     4   Atom        0.000000      0.000000      0.000000
     5   Atom        0.000000      0.000000      0.000000
     6   Atom        0.000000      0.000000      0.000000
     7   Atom        0.000000      0.000000      0.000000
     8   Atom        0.000000      0.000000      0.000000
     9   Atom        0.000000      0.000000      0.000000
    10   Atom        0.000000      0.000000      0.000000
    11   Atom        0.000000      0.000000      0.000000
    12   Atom        0.000000      0.000000      0.000000
 --------------------------------------------------------
                        XY            XZ            YZ
 --------------------------------------------------------
     1   Atom        0.000000      0.000000      0.000000
     2   Atom        0.000000      0.000000      0.000000
     3   Atom        0.000000      0.000000      0.000000
     4   Atom        0.000000      0.000000      0.000000
     5   Atom        0.000000      0.000000      0.000000
     6   Atom        0.000000      0.000000      0.000000
     7   Atom        0.000000      0.000000      0.000000
     8   Atom        0.000000      0.000000      0.000000
     9   Atom        0.000000      0.000000      0.000000
    10   Atom        0.000000      0.000000      0.000000
    11   Atom        0.000000      0.000000      0.000000
    12   Atom        0.000000      0.000000      0.000000
 --------------------------------------------------------


 ---------------------------------------------------------------------------------
              Anisotropic Spin Dipole Couplings in Principal Axis System
 ---------------------------------------------------------------------------------

       Atom             a.u.   MegaHertz   Gauss  10(-4) cm-1        Axes

              Baa     0.0000     0.000     0.000     0.000  1.0000  0.0000  0.0000
     1 N(14)  Bbb     0.0000     0.000     0.000     0.000 -0.0000  1.0000  0.0000
              Bcc     0.0000     0.000     0.000     0.000  0.0000  0.0000  1.0000
 
              Baa     0.0000     0.000     0.000     0.000  1.0000  0.0000  0.0000
     2 B(11)  Bbb     0.0000     0.000     0.000     0.000 -0.0000  1.0000  0.0000
              Bcc     0.0000     0.000     0.000     0.000  0.0000  0.0000  1.0000
 
              Baa     0.0000     0.000     0.000     0.000  1.0000  0.0000  0.0000
     3 N(14)  Bbb     0.0000     0.000     0.000     0.000 -0.0000  1.0000  0.0000
              Bcc     0.0000     0.000     0.000     0.000  0.0000  0.0000  1.0000
 
              Baa     0.0000     0.000     0.000     0.000  1.0000  0.0000  0.0000
     4 B(11)  Bbb     0.0000     0.000     0.000     0.000 -0.0000  1.0000  0.0000
              Bcc     0.0000     0.000     0.000     0.000  0.0000  0.0000  1.0000
 
              Baa     0.0000     0.000     0.000     0.000  1.0000  0.0000  0.0000
     5 H(1)   Bbb     0.0000     0.000     0.000     0.000 -0.0000  1.0000  0.0000
              Bcc     0.0000     0.000     0.000     0.000  0.0000  0.0000  1.0000
 
              Baa     0.0000     0.000     0.000     0.000  1.0000  0.0000  0.0000
     6 H(1)   Bbb     0.0000     0.000     0.000     0.000 -0.0000  1.0000  0.0000
              Bcc     0.0000     0.000     0.000     0.000  0.0000  0.0000  1.0000
 
              Baa     0.0000     0.000     0.000     0.000  1.0000  0.0000  0.0000
     7 H(1)   Bbb     0.0000     0.000     0.000     0.000 -0.0000  1.0000  0.0000
              Bcc     0.0000     0.000     0.000     0.000  0.0000  0.0000  1.0000
 
              Baa     0.0000     0.000     0.000     0.000  1.0000  0.0000  0.0000
     8 H(1)   Bbb     0.0000     0.000     0.000     0.000 -0.0000  1.0000  0.0000
              Bcc     0.0000     0.000     0.000     0.000  0.0000  0.0000  1.0000
 
              Baa     0.0000     0.000     0.000     0.000  1.0000  0.0000  0.0000
     9 H(1)   Bbb     0.0000     0.000     0.000     0.000 -0.0000  1.0000  0.0000
              Bcc     0.0000     0.000     0.000     0.000  0.0000  0.0000  1.0000
 
              Baa     0.0000     0.000     0.000     0.000  1.0000  0.0000  0.0000
    10 H(1)   Bbb     0.0000     0.000     0.000     0.000 -0.0000  1.0000  0.0000
              Bcc     0.0000     0.000     0.000     0.000  0.0000  0.0000  1.0000
 
              Baa     0.0000     0.000     0.000     0.000  1.0000  0.0000  0.0000
    11 H(1)   Bbb     0.0000     0.000     0.000     0.000 -0.0000  1.0000  0.0000
              Bcc     0.0000     0.000     0.000     0.000  0.0000  0.0000  1.0000
 
              Baa     0.0000     0.000     0.000     0.000  1.0000  0.0000  0.0000
    12 H(1)   Bbb     0.0000     0.000     0.000     0.000 -0.0000  1.0000  0.0000
              Bcc     0.0000     0.000     0.000     0.000  0.0000  0.0000  1.0000
 

 ---------------------------------------------------------------------------------

 Calling FoFJK, ICntrl=    100147 FMM=F ISym2X=0 I1Cent= 0 IOpClX= 1 NMat=1 NMatS=1 NMatT=0.
 -------------------------------------------------------------------
 Center     Atomic                   Forces (Hartrees/Bohr)
 Number     Number              X              Y              Z
 -------------------------------------------------------------------
      1        7          -0.000000475   -0.000000409   -0.000000443
      2        5          -0.000000306    0.000001683   -0.000001468
      3        7           0.000004822    0.000007481   -0.000007402
      4        5          -0.000003576   -0.000004273    0.000002062
      5        1           0.000000143   -0.000002168    0.000004232
      6        1           0.000000829   -0.000000128    0.000003632
      7        1          -0.000000885    0.000000244    0.000000882
      8        1           0.000000122    0.000001573   -0.000001153
      9        1           0.000001220    0.000002182   -0.000001306
     10        1          -0.000004755   -0.000007284    0.000000490
     11        1           0.000000979   -0.000000898    0.000000014
     12        1           0.000001881    0.000001997    0.000000458
 -------------------------------------------------------------------
 Cartesian Forces:  Max     0.000007481 RMS     0.000002936
 IRC-IRC-IRC-IRC-IRC-IRC-IRC-IRC-IRC-IRC-IRC-IRC-IRC-IRC-IRC-IRC-IRC-IRC
          ******** Start new reaction path calculation ********
 Supplied step size of   0.0500 bohr.
    Integration on MW PES will use step size of   0.1092 sqrt(amu)*bohr.
 Point Number:   0          Path Number:   1
 Calculating another point on the path.
 IRC-IRC-IRC-IRC-IRC-IRC-IRC-IRC-IRC-IRC-IRC-IRC-IRC-IRC-IRC-IRC-IRC-IRC
                          Input orientation:                          
 ---------------------------------------------------------------------
 Center     Atomic      Atomic             Coordinates (Angstroms)
 Number     Number       Type             X           Y           Z
 ---------------------------------------------------------------------
      1          7           0        1.116401   -0.718606   -0.182930
      2          5           0        1.337294    0.707775   -0.151389
      3          7           0       -1.706100    0.027560   -0.247189
      4          5           0       -0.635926    0.118021    0.677138
      5          1           0       -1.863008    0.698504   -0.981884
      6          1           0        1.077990    1.340357   -1.131094
      7          1           0        2.060700    1.149814    0.688736
      8          1           0        1.544234   -1.345546    0.482173
      9          1           0        0.742774   -1.186955   -0.994924
     10          1           0       -2.364660   -0.734132   -0.244488
     11          1           0       -0.603394   -0.539951    1.671761
     12          1           0       -0.062783    1.198698    0.742760
 ---------------------------------------------------------------------
                    Distance matrix (angstroms):
                    1          2          3          4          5
     1  N    0.000000
     2  B    1.443729   0.000000
     3  N    2.920172   3.119955   0.000000
     4  B    2.123750   2.219880   1.416981   0.000000
     5  H    3.394614   3.306318   1.007255   2.143605   0.000000
     6  H    2.267117   1.194663   3.202480   2.775124   3.013919
     7  H    2.267707   1.193534   4.040320   2.887304   4.288372
     8  H    1.009186   2.158785   3.603062   2.633085   4.234489
     9  H    1.009100   2.157547   2.833926   2.529737   3.216399
    10  H    3.481640   3.973943   1.006917   2.136371   1.687558
    11  H    2.535644   2.940573   2.284819   1.193005   3.187825
    12  H    2.433810   1.732260   2.247677   1.225015   2.542715
                    6          7          8          9         10
     6  H    0.000000
     7  H    2.076970   0.000000
     8  H    3.167662   2.556604   0.000000
     9  H    2.553080   3.167353   1.687988   0.000000
    10  H    4.115994   4.899384   4.022600   3.228676   0.000000
    11  H    3.770756   3.304397   2.583874   3.056467   2.609938
    12  H    2.198354   2.124733   3.020527   3.059381   3.163720
                   11         12
    11  H    0.000000
    12  H    2.044065   0.000000
 Symmetry turned off by external request.
 Stoichiometry    B2H8N2
 Framework group  C1[X(B2H8N2)]
 Deg. of freedom    30
 Full point group                 C1      NOp   1
 Rotational constants (GHZ):          14.0261197           4.4237527           4.1266188
 Standard basis: 6-31G(d,p) (6D, 7F)
   100 basis functions,   168 primitive gaussians,   100 cartesian basis functions
    16 alpha electrons       16 beta electrons
       nuclear repulsion energy       112.9951210631 Hartrees.
 NAtoms=   12 NActive=   12 NUniq=   12 SFac= 1.00D+00 NAtFMM=   60 NAOKFM=F Big=F
 Integral buffers will be    131072 words long.
 Raffenetti 2 integral format.
 Two-electron integral symmetry is turned off.
 One-electron integrals computed using PRISM.
 NBasis=   100 RedAO= T EigKep=  5.98D-03  NBF=   100
 NBsUse=   100 1.00D-06 EigRej= -1.00D+00 NBFU=   100
 Initial guess from the checkpoint file:  "/scratch/1311823/Gau-26025.chk"
 B after Tr=    -0.005268   -0.007533   -0.008803
         Rot=    1.000000   -0.000339    0.000080   -0.000095 Ang=  -0.04 deg.
 Initial guess <Sx>= 0.0000 <Sy>= 0.0000 <Sz>= 0.0000 <S**2>=-0.0000 S=-0.0000
 ExpMin= 1.27D-01 ExpMax= 4.17D+03 ExpMxC= 6.27D+02 IAcc=2 IRadAn=         4 AccDes= 0.00D+00
 Harris functional with IExCor=  402 and IRadAn=       4 diagonalized for initial guess.
 HarFok:  IExCor=  402 AccDes= 0.00D+00 IRadAn=         4 IDoV= 1 UseB2=F ITyADJ=14
 ICtDFT=  3500011 ScaDFX=  1.000000  1.000000  1.000000  1.000000
 FoFCou: FMM=F IPFlag=           0 FMFlag=      100000 FMFlg1=           0
         NFxFlg=           0 DoJE=T BraDBF=F KetDBF=T FulRan=T
         wScrn=  0.000000 ICntrl=       500 IOpCl=  0 I1Cent=   200000004 NGrid=           0
         NMat0=    1 NMatS0=      1 NMatT0=    0 NMatD0=    1 NMtDS0=    0 NMtDT0=    0
 Symmetry not used in FoFCou.
 Keep R1 and R2 ints in memory in canonical form, NReq=29209606.
 Requested convergence on RMS density matrix=1.00D-08 within1024 cycles.
 Requested convergence on MAX density matrix=1.00D-06.
 Requested convergence on             energy=1.00D-06.
 No special actions if energy rises.
 Integral accuracy reduced to 1.0D-05 until final iterations.
 Initial convergence to 1.0D-05 achieved.  Increase integral accuracy.
 SCF Done:  E(UB3LYP) =  -164.082603612     A.U. after    9 cycles
            NFock=  9  Conv=0.85D-08     -V/T= 2.0099
 <Sx>= 0.0000 <Sy>= 0.0000 <Sz>= 0.0000 <S**2>=-0.0000 S=-0.0000
 <L.S>= 0.000000000000E+00
 Annihilation of the first spin contaminant:
 S**2 before annihilation    -0.0000,   after     0.0000
 DoSCS=F DFT=T ScalE2(SS,OS)=  1.000000  1.000000
 Range of M.O.s used for correlation:     1   100
 NBasis=   100 NAE=    16 NBE=    16 NFC=     0 NFV=     0
 NROrb=    100 NOA=    16 NOB=    16 NVA=    84 NVB=    84
 Symmetrizing basis deriv contribution to polar:
 IMax=3 JMax=2 DiffMx= 0.00D+00
 Calling FoFJK, ICntrl=      2147 FMM=F ISym2X=0 I1Cent= 0 IOpClX= 1 NMat=1 NMatS=1 NMatT=0.
 -------------------------------------------------------------------
 Center     Atomic                   Forces (Hartrees/Bohr)
 Number     Number              X              Y              Z
 -------------------------------------------------------------------
      1        7           0.000802753   -0.000047074   -0.000335742
      2        5           0.000587101   -0.000229980   -0.000294341
      3        7          -0.000255759   -0.000070721   -0.000057715
      4        5          -0.000941550    0.000333200    0.000578060
      5        1          -0.000038298    0.000010584    0.000036417
      6        1          -0.000009503   -0.000013642    0.000018713
      7        1           0.000003917   -0.000008655   -0.000002861
      8        1          -0.000011064    0.000016944   -0.000000100
      9        1          -0.000012745    0.000030377    0.000067834
     10        1           0.000019999   -0.000022871   -0.000047544
     11        1          -0.000046351   -0.000044265   -0.000056942
     12        1          -0.000098500    0.000046103    0.000094220
 -------------------------------------------------------------------
 Cartesian Forces:  Max     0.000941550 RMS     0.000273352
 IRC-IRC-IRC-IRC-IRC-IRC-IRC-IRC-IRC-IRC-IRC-IRC-IRC-IRC-IRC-IRC-IRC-IRC
 Pt  1 Step number   1 out of a maximum of  20
 Modified Bulirsch-Stoer Extrapolation Cycles:
    EPS =    0.000010000000000
      PEZero:  N= 2 I= 1 D=  2.84D-04 Err=  5.84D-04
      PEZero:  N= 3 I= 2 D=  2.84D-04 Err=  3.10D-04
      PEZero:  N= 3 I= 1 D=  5.69D-04 Err=  1.19D-04
      PEZero:  N= 4 I= 3 D=  1.42D-04 Err=  2.32D-04
      PEZero:  N= 4 I= 2 D=  4.27D-04 Err=  1.68D-06
      PEZero:  N= 4 I= 1 D=  7.11D-04 Err=  6.93D-05
 Maximum DWI energy   std dev =  0.000000063 at pt     1
 Maximum DWI gradient std dev =  0.094430525 at pt     1
 CORRECTOR INTEGRATION CONVERGENCE:
   Recorrection delta-x convergence threshold:    0.010000
   Delta-x Convergence Met
 Point Number:   1          Path Number:   1
   CHANGE IN THE REACTION COORDINATE =    0.10924
   NET REACTION COORDINATE UP TO THIS POINT =    0.10924
  # OF POINTS ALONG THE PATH =   1
  # OF STEPS =   1

 Calculating another point on the path.
 IRC-IRC-IRC-IRC-IRC-IRC-IRC-IRC-IRC-IRC-IRC-IRC-IRC-IRC-IRC-IRC-IRC-IRC
                          Input orientation:                          
 ---------------------------------------------------------------------
 Center     Atomic      Atomic             Coordinates (Angstroms)
 Number     Number       Type             X           Y           Z
 ---------------------------------------------------------------------
      1          7           0        1.123023   -0.718337   -0.185369
      2          5           0        1.343324    0.704976   -0.154335
      3          7           0       -1.708233    0.026853   -0.247593
      4          5           0       -0.645372    0.122181    0.682794
      5          1           0       -1.867116    0.701206   -0.978821
      6          1           0        1.076269    1.340000   -1.130254
      7          1           0        2.061228    1.149347    0.689120
      8          1           0        1.543986   -1.345919    0.483430
      9          1           0        0.739047   -1.187276   -0.992164
     10          1           0       -2.363483   -0.737801   -0.250159
     11          1           0       -0.608654   -0.548340    1.669020
     12          1           0       -0.074563    1.200749    0.752807
 ---------------------------------------------------------------------
                    Distance matrix (angstroms):
                    1          2          3          4          5
     1  N    0.000000
     2  B    1.440595   0.000000
     3  N    2.928343   3.127387   0.000000
     4  B    2.141822   2.235027   1.415762   0.000000
     5  H    3.403762   3.314621   1.007318   2.142170   0.000000
     6  H    2.265335   1.194568   3.202639   2.781056   3.015710
     7  H    2.265657   1.193427   4.043051   2.894960   4.291240
     8  H    1.009139   2.157123   3.604973   2.643550   4.238457
     9  H    1.009088   2.155858   2.831550   2.537081   3.218482
    10  H    3.487163   3.978845   1.007003   2.135855   1.687623
    11  H    2.542905   2.950533   2.283271   1.193142   3.186872
    12  H    2.448934   1.754737   2.246711   1.222307   2.541914
                    6          7          8          9         10
     6  H    0.000000
     7  H    2.077646   0.000000
     8  H    3.168106   2.556600   0.000000
     9  H    2.553412   3.167757   1.688334   0.000000
    10  H    4.113846   4.901188   4.021975   3.221536   0.000000
    11  H    3.773689   3.312192   2.583722   3.050645   2.607406
    12  H    2.211272   2.137358   3.029486   3.067499   3.162764
                   11         12
    11  H    0.000000
    12  H    2.045486   0.000000
 Symmetry turned off by external request.
 Stoichiometry    B2H8N2
 Framework group  C1[X(B2H8N2)]
 Deg. of freedom    30
 Full point group                 C1      NOp   1
 Rotational constants (GHZ):          13.9953765           4.3956369           4.1053284
 Standard basis: 6-31G(d,p) (6D, 7F)
   100 basis functions,   168 primitive gaussians,   100 cartesian basis functions
    16 alpha electrons       16 beta electrons
       nuclear repulsion energy       112.8343518117 Hartrees.
 NAtoms=   12 NActive=   12 NUniq=   12 SFac= 1.00D+00 NAtFMM=   60 NAOKFM=F Big=F
 Integral buffers will be    131072 words long.
 Raffenetti 2 integral format.
 Two-electron integral symmetry is turned off.
 One-electron integrals computed using PRISM.
 NBasis=   100 RedAO= T EigKep=  6.05D-03  NBF=   100
 NBsUse=   100 1.00D-06 EigRej= -1.00D+00 NBFU=   100
 Initial guess from the checkpoint file:  "/scratch/1311823/Gau-26025.chk"
 B after Tr=    -0.000641   -0.000305    0.000218
         Rot=    1.000000   -0.000360    0.000086   -0.000101 Ang=  -0.04 deg.
 Initial guess <Sx>= 0.0000 <Sy>= 0.0000 <Sz>= 0.0000 <S**2>=-0.0000 S=-0.0000
 ExpMin= 1.27D-01 ExpMax= 4.17D+03 ExpMxC= 6.27D+02 IAcc=2 IRadAn=         4 AccDes= 0.00D+00
 Harris functional with IExCor=  402 and IRadAn=       4 diagonalized for initial guess.
 HarFok:  IExCor=  402 AccDes= 0.00D+00 IRadAn=         4 IDoV= 1 UseB2=F ITyADJ=14
 ICtDFT=  3500011 ScaDFX=  1.000000  1.000000  1.000000  1.000000
 FoFCou: FMM=F IPFlag=           0 FMFlag=      100000 FMFlg1=           0
         NFxFlg=           0 DoJE=T BraDBF=F KetDBF=T FulRan=T
         wScrn=  0.000000 ICntrl=       500 IOpCl=  0 I1Cent=   200000004 NGrid=           0
         NMat0=    1 NMatS0=      1 NMatT0=    0 NMatD0=    1 NMtDS0=    0 NMtDT0=    0
 Symmetry not used in FoFCou.
 Keep R1 and R2 ints in memory in canonical form, NReq=29209606.
 Requested convergence on RMS density matrix=1.00D-08 within1024 cycles.
 Requested convergence on MAX density matrix=1.00D-06.
 Requested convergence on             energy=1.00D-06.
 No special actions if energy rises.
 Integral accuracy reduced to 1.0D-05 until final iterations.
 Initial convergence to 1.0D-05 achieved.  Increase integral accuracy.
 SCF Done:  E(UB3LYP) =  -164.082684873     A.U. after   10 cycles
            NFock= 10  Conv=0.37D-08     -V/T= 2.0099
 <Sx>= 0.0000 <Sy>= 0.0000 <Sz>= 0.0000 <S**2>=-0.0000 S=-0.0000
 <L.S>= 0.000000000000E+00
 Annihilation of the first spin contaminant:
 S**2 before annihilation    -0.0000,   after     0.0000
 DoSCS=F DFT=T ScalE2(SS,OS)=  1.000000  1.000000
 Range of M.O.s used for correlation:     1   100
 NBasis=   100 NAE=    16 NBE=    16 NFC=     0 NFV=     0
 NROrb=    100 NOA=    16 NOB=    16 NVA=    84 NVB=    84
 Symmetrizing basis deriv contribution to polar:
 IMax=3 JMax=2 DiffMx= 0.00D+00
 Calling FoFJK, ICntrl=      2147 FMM=F ISym2X=0 I1Cent= 0 IOpClX= 1 NMat=1 NMatS=1 NMatT=0.
 -------------------------------------------------------------------
 Center     Atomic                   Forces (Hartrees/Bohr)
 Number     Number              X              Y              Z
 -------------------------------------------------------------------
      1        7           0.001541386   -0.000086139   -0.000643860
      2        5           0.001148235   -0.000431304   -0.000565346
      3        7          -0.000512963   -0.000151073   -0.000096101
      4        5          -0.001818333    0.000627080    0.001114978
      5        1          -0.000074114    0.000023996    0.000060913
      6        1          -0.000016157   -0.000026595    0.000027630
      7        1           0.000013652   -0.000017568   -0.000009083
      8        1          -0.000021157    0.000030590    0.000001636
      9        1          -0.000025505    0.000054727    0.000131580
     10        1           0.000050977   -0.000027477   -0.000093429
     11        1          -0.000092512   -0.000080578   -0.000110022
     12        1          -0.000193507    0.000084341    0.000181104
 -------------------------------------------------------------------
 Cartesian Forces:  Max     0.001818333 RMS     0.000527333
 IRC-IRC-IRC-IRC-IRC-IRC-IRC-IRC-IRC-IRC-IRC-IRC-IRC-IRC-IRC-IRC-IRC-IRC
 Pt  2 Step number   1 out of a maximum of  20
 Modified Bulirsch-Stoer Extrapolation Cycles:
    EPS =    0.000010000000000
      PEZero:  N= 2 I= 1 D=  5.69D-04 Err=  4.21D-06
 Maximum DWI energy   std dev =  0.000000201 at pt    36
 Maximum DWI gradient std dev =  0.065462338 at pt    27
 CORRECTOR INTEGRATION CONVERGENCE:
   Recorrection delta-x convergence threshold:    0.010000
   Delta-x Convergence Met
 Point Number:   2          Path Number:   1
   CHANGE IN THE REACTION COORDINATE =    0.10920
   NET REACTION COORDINATE UP TO THIS POINT =    0.21844
  # OF POINTS ALONG THE PATH =   2
  # OF STEPS =   1

 Calculating another point on the path.
 IRC-IRC-IRC-IRC-IRC-IRC-IRC-IRC-IRC-IRC-IRC-IRC-IRC-IRC-IRC-IRC-IRC-IRC
                          Input orientation:                          
 ---------------------------------------------------------------------
 Center     Atomic      Atomic             Coordinates (Angstroms)
 Number     Number       Type             X           Y           Z
 ---------------------------------------------------------------------
      1          7           0        1.129591   -0.718101   -0.187769
      2          5           0        1.349483    0.702294   -0.157344
      3          7           0       -1.710409    0.026202   -0.247973
      4          5           0       -0.654897    0.126155    0.688473
      5          1           0       -1.871150    0.703728   -0.975926
      6          1           0        1.074824    1.339492   -1.129593
      7          1           0        2.062151    1.148835    0.689234
      8          1           0        1.543740   -1.346147    0.484753
      9          1           0        0.735439   -1.187492   -0.989298
     10          1           0       -2.362261   -0.741390   -0.255834
     11          1           0       -0.614098   -0.556386    1.666309
     12          1           0       -0.086439    1.202909    0.762899
 ---------------------------------------------------------------------
                    Distance matrix (angstroms):
                    1          2          3          4          5
     1  N    0.000000
     2  B    1.437637   0.000000
     3  N    2.936530   3.135005   0.000000
     4  B    2.159853   2.250529   1.414577   0.000000
     5  H    3.412804   3.323034   1.007371   2.140815   0.000000
     6  H    2.263564   1.194457   3.203047   2.787379   3.017709
     7  H    2.263682   1.193310   4.046094   2.903140   4.294384
     8  H    1.009082   2.155489   3.606898   2.653898   4.242292
     9  H    1.009025   2.154179   2.829274   2.544331   3.220435
    10  H    3.492592   3.983838   1.007059   2.135285   1.687628
    11  H    2.550335   2.960682   2.281619   1.193185   3.185824
    12  H    2.464301   1.777452   2.245837   1.219870   2.541237
                    6          7          8          9         10
     6  H    0.000000
     7  H    2.078292   0.000000
     8  H    3.168383   2.556462   0.000000
     9  H    2.553529   3.167974   1.688593   0.000000
    10  H    4.111821   4.903216   4.021323   3.214455   0.000000
    11  H    3.776755   3.320356   2.583808   3.044963   2.604791
    12  H    2.224571   2.150532   3.038509   3.075662   3.161879
                   11         12
    11  H    0.000000
    12  H    2.046874   0.000000
 Symmetry turned off by external request.
 Stoichiometry    B2H8N2
 Framework group  C1[X(B2H8N2)]
 Deg. of freedom    30
 Full point group                 C1      NOp   1
 Rotational constants (GHZ):          13.9640233           4.3673565           4.0837777
 Standard basis: 6-31G(d,p) (6D, 7F)
   100 basis functions,   168 primitive gaussians,   100 cartesian basis functions
    16 alpha electrons       16 beta electrons
       nuclear repulsion energy       112.6724952780 Hartrees.
 NAtoms=   12 NActive=   12 NUniq=   12 SFac= 1.00D+00 NAtFMM=   60 NAOKFM=F Big=F
 Integral buffers will be    131072 words long.
 Raffenetti 2 integral format.
 Two-electron integral symmetry is turned off.
 One-electron integrals computed using PRISM.
 NBasis=   100 RedAO= T EigKep=  6.12D-03  NBF=   100
 NBsUse=   100 1.00D-06 EigRej= -1.00D+00 NBFU=   100
 Initial guess from the checkpoint file:  "/scratch/1311823/Gau-26025.chk"
 B after Tr=    -0.000629   -0.000292    0.000210
         Rot=    1.000000   -0.000332    0.000087   -0.000094 Ang=  -0.04 deg.
 Initial guess <Sx>= 0.0000 <Sy>= 0.0000 <Sz>= 0.0000 <S**2>=-0.0000 S=-0.0000
 ExpMin= 1.27D-01 ExpMax= 4.17D+03 ExpMxC= 6.27D+02 IAcc=2 IRadAn=         4 AccDes= 0.00D+00
 Harris functional with IExCor=  402 and IRadAn=       4 diagonalized for initial guess.
 HarFok:  IExCor=  402 AccDes= 0.00D+00 IRadAn=         4 IDoV= 1 UseB2=F ITyADJ=14
 ICtDFT=  3500011 ScaDFX=  1.000000  1.000000  1.000000  1.000000
 FoFCou: FMM=F IPFlag=           0 FMFlag=      100000 FMFlg1=           0
         NFxFlg=           0 DoJE=T BraDBF=F KetDBF=T FulRan=T
         wScrn=  0.000000 ICntrl=       500 IOpCl=  0 I1Cent=   200000004 NGrid=           0
         NMat0=    1 NMatS0=      1 NMatT0=    0 NMatD0=    1 NMtDS0=    0 NMtDT0=    0
 Symmetry not used in FoFCou.
 Keep R1 and R2 ints in memory in canonical form, NReq=29209606.
 Requested convergence on RMS density matrix=1.00D-08 within1024 cycles.
 Requested convergence on MAX density matrix=1.00D-06.
 Requested convergence on             energy=1.00D-06.
 No special actions if energy rises.
 Integral accuracy reduced to 1.0D-05 until final iterations.
 Initial convergence to 1.0D-05 achieved.  Increase integral accuracy.
 SCF Done:  E(UB3LYP) =  -164.082815534     A.U. after   10 cycles
            NFock= 10  Conv=0.40D-08     -V/T= 2.0099
 <Sx>= 0.0000 <Sy>= 0.0000 <Sz>= 0.0000 <S**2>=-0.0000 S=-0.0000
 <L.S>= 0.000000000000E+00
 Annihilation of the first spin contaminant:
 S**2 before annihilation    -0.0000,   after    -0.0000
 DoSCS=F DFT=T ScalE2(SS,OS)=  1.000000  1.000000
 Range of M.O.s used for correlation:     1   100
 NBasis=   100 NAE=    16 NBE=    16 NFC=     0 NFV=     0
 NROrb=    100 NOA=    16 NOB=    16 NVA=    84 NVB=    84
 Symmetrizing basis deriv contribution to polar:
 IMax=3 JMax=2 DiffMx= 0.00D+00
 Calling FoFJK, ICntrl=      2147 FMM=F ISym2X=0 I1Cent= 0 IOpClX= 1 NMat=1 NMatS=1 NMatT=0.
 -------------------------------------------------------------------
 Center     Atomic                   Forces (Hartrees/Bohr)
 Number     Number              X              Y              Z
 -------------------------------------------------------------------
      1        7           0.002217278   -0.000062424   -0.000881342
      2        5           0.001671038   -0.000644322   -0.000823069
      3        7          -0.000754982   -0.000216971   -0.000129778
      4        5          -0.002606880    0.000943592    0.001579854
      5        1          -0.000103262    0.000044257    0.000078633
      6        1          -0.000023120   -0.000028634    0.000029324
      7        1           0.000026732   -0.000019470   -0.000009029
      8        1          -0.000021488    0.000030529    0.000010822
      9        1          -0.000050958    0.000053872    0.000150962
     10        1           0.000062189   -0.000053532   -0.000136862
     11        1          -0.000134121   -0.000142238   -0.000124487
     12        1          -0.000282426    0.000095341    0.000254970
 -------------------------------------------------------------------
 Cartesian Forces:  Max     0.002606880 RMS     0.000757977
 IRC-IRC-IRC-IRC-IRC-IRC-IRC-IRC-IRC-IRC-IRC-IRC-IRC-IRC-IRC-IRC-IRC-IRC
 Pt  3 Step number   1 out of a maximum of  20
 Modified Bulirsch-Stoer Extrapolation Cycles:
    EPS =    0.000010000000000
      PEZero:  N= 2 I= 1 D=  5.69D-04 Err=  4.04D-06
 Maximum DWI energy   std dev =  0.000000217 at pt    36
 Maximum DWI gradient std dev =  0.040083074 at pt    28
 CORRECTOR INTEGRATION CONVERGENCE:
   Recorrection delta-x convergence threshold:    0.010000
   Delta-x Convergence Met
 Point Number:   3          Path Number:   1
   CHANGE IN THE REACTION COORDINATE =    0.10921
   NET REACTION COORDINATE UP TO THIS POINT =    0.32766
  # OF POINTS ALONG THE PATH =   3
  # OF STEPS =   1

 Calculating another point on the path.
 IRC-IRC-IRC-IRC-IRC-IRC-IRC-IRC-IRC-IRC-IRC-IRC-IRC-IRC-IRC-IRC-IRC-IRC
                          Input orientation:                          
 ---------------------------------------------------------------------
 Center     Atomic      Atomic             Coordinates (Angstroms)
 Number     Number       Type             X           Y           Z
 ---------------------------------------------------------------------
      1          7           0        1.136118   -0.717892   -0.190141
      2          5           0        1.355729    0.699688   -0.160394
      3          7           0       -1.712622    0.025585   -0.248333
      4          5           0       -0.664471    0.130016    0.694163
      5          1           0       -1.875158    0.706151   -0.973123
      6          1           0        1.073601    1.338929   -1.129036
      7          1           0        2.063332    1.148308    0.689187
      8          1           0        1.543567   -1.346279    0.486069
      9          1           0        0.731972   -1.187610   -0.986413
     10          1           0       -2.360973   -0.744969   -0.261538
     11          1           0       -0.619626   -0.564213    1.663633
     12          1           0       -0.098334    1.205113    0.772976
 ---------------------------------------------------------------------
                    Distance matrix (angstroms):
                    1          2          3          4          5
     1  N    0.000000
     2  B    1.434798   0.000000
     3  N    2.944735   3.142758   0.000000
     4  B    2.177857   2.266274   1.413445   0.000000
     5  H    3.421804   3.331546   1.007427   2.139518   0.000000
     6  H    2.261845   1.194359   3.203677   2.793997   3.019916
     7  H    2.261779   1.193210   4.049356   2.911675   4.297730
     8  H    1.009032   2.153875   3.608895   2.664241   4.246103
     9  H    1.008969   2.152504   2.827126   2.551573   3.222364
    10  H    3.497925   3.988876   1.007118   2.134733   1.687637
    11  H    2.557877   2.970951   2.279938   1.193246   3.184755
    12  H    2.479801   1.800260   2.245058   1.217602   2.540655
                    6          7          8          9         10
     6  H    0.000000
     7  H    2.078904   0.000000
     8  H    3.168561   2.556242   0.000000
     9  H    2.553518   3.168070   1.688806   0.000000
    10  H    4.109925   4.905390   4.020687   3.207442   0.000000
    11  H    3.779943   3.328744   2.584123   3.039439   2.602162
    12  H    2.238077   2.164035   3.047582   3.083826   3.161103
                   11         12
    11  H    0.000000
    12  H    2.048299   0.000000
 Symmetry turned off by external request.
 Stoichiometry    B2H8N2
 Framework group  C1[X(B2H8N2)]
 Deg. of freedom    30
 Full point group                 C1      NOp   1
 Rotational constants (GHZ):          13.9321830           4.3390131           4.0620390
 Standard basis: 6-31G(d,p) (6D, 7F)
   100 basis functions,   168 primitive gaussians,   100 cartesian basis functions
    16 alpha electrons       16 beta electrons
       nuclear repulsion energy       112.5097611026 Hartrees.
 NAtoms=   12 NActive=   12 NUniq=   12 SFac= 1.00D+00 NAtFMM=   60 NAOKFM=F Big=F
 Integral buffers will be    131072 words long.
 Raffenetti 2 integral format.
 Two-electron integral symmetry is turned off.
 One-electron integrals computed using PRISM.
 NBasis=   100 RedAO= T EigKep=  6.20D-03  NBF=   100
 NBsUse=   100 1.00D-06 EigRej= -1.00D+00 NBFU=   100
 Initial guess from the checkpoint file:  "/scratch/1311823/Gau-26025.chk"
 B after Tr=    -0.000609   -0.000282    0.000200
         Rot=    1.000000   -0.000317    0.000086   -0.000091 Ang=  -0.04 deg.
 Initial guess <Sx>= 0.0000 <Sy>= 0.0000 <Sz>= 0.0000 <S**2>= 0.0000 S= 0.0000
 ExpMin= 1.27D-01 ExpMax= 4.17D+03 ExpMxC= 6.27D+02 IAcc=2 IRadAn=         4 AccDes= 0.00D+00
 Harris functional with IExCor=  402 and IRadAn=       4 diagonalized for initial guess.
 HarFok:  IExCor=  402 AccDes= 0.00D+00 IRadAn=         4 IDoV= 1 UseB2=F ITyADJ=14
 ICtDFT=  3500011 ScaDFX=  1.000000  1.000000  1.000000  1.000000
 FoFCou: FMM=F IPFlag=           0 FMFlag=      100000 FMFlg1=           0
         NFxFlg=           0 DoJE=T BraDBF=F KetDBF=T FulRan=T
         wScrn=  0.000000 ICntrl=       500 IOpCl=  0 I1Cent=   200000004 NGrid=           0
         NMat0=    1 NMatS0=      1 NMatT0=    0 NMatD0=    1 NMtDS0=    0 NMtDT0=    0
 Symmetry not used in FoFCou.
 Keep R1 and R2 ints in memory in canonical form, NReq=29209606.
 Requested convergence on RMS density matrix=1.00D-08 within1024 cycles.
 Requested convergence on MAX density matrix=1.00D-06.
 Requested convergence on             energy=1.00D-06.
 No special actions if energy rises.
 Integral accuracy reduced to 1.0D-05 until final iterations.
 EnCoef did     1 forward-backward iterations
 Initial convergence to 1.0D-05 achieved.  Increase integral accuracy.
 SCF Done:  E(UB3LYP) =  -164.082991176     A.U. after   10 cycles
            NFock= 10  Conv=0.41D-08     -V/T= 2.0099
 <Sx>= 0.0000 <Sy>= 0.0000 <Sz>= 0.0000 <S**2>= 0.0000 S= 0.0000
 <L.S>= 0.000000000000E+00
 Annihilation of the first spin contaminant:
 S**2 before annihilation     0.0000,   after     0.0000
 DoSCS=F DFT=T ScalE2(SS,OS)=  1.000000  1.000000
 Range of M.O.s used for correlation:     1   100
 NBasis=   100 NAE=    16 NBE=    16 NFC=     0 NFV=     0
 NROrb=    100 NOA=    16 NOB=    16 NVA=    84 NVB=    84
 Symmetrizing basis deriv contribution to polar:
 IMax=3 JMax=2 DiffMx= 0.00D+00
 Calling FoFJK, ICntrl=      2147 FMM=F ISym2X=0 I1Cent= 0 IOpClX= 1 NMat=1 NMatS=1 NMatT=0.
 -------------------------------------------------------------------
 Center     Atomic                   Forces (Hartrees/Bohr)
 Number     Number              X              Y              Z
 -------------------------------------------------------------------
      1        7           0.002820770   -0.000043330   -0.001092238
      2        5           0.002162128   -0.000817684   -0.001060084
      3        7          -0.000984533   -0.000267081   -0.000156526
      4        5          -0.003332351    0.001200584    0.002003845
      5        1          -0.000129501    0.000059551    0.000094313
      6        1          -0.000025345   -0.000032652    0.000029115
      7        1           0.000043020   -0.000022651   -0.000013037
      8        1          -0.000019098    0.000030104    0.000020138
      9        1          -0.000070792    0.000052738    0.000166579
     10        1           0.000073477   -0.000076018   -0.000176815
     11        1          -0.000174901   -0.000191825   -0.000137797
     12        1          -0.000362874    0.000108267    0.000322508
 -------------------------------------------------------------------
 Cartesian Forces:  Max     0.003332351 RMS     0.000967428
 IRC-IRC-IRC-IRC-IRC-IRC-IRC-IRC-IRC-IRC-IRC-IRC-IRC-IRC-IRC-IRC-IRC-IRC
 Pt  4 Step number   1 out of a maximum of  20
 Modified Bulirsch-Stoer Extrapolation Cycles:
    EPS =    0.000010000000000
      PEZero:  N= 2 I= 1 D=  5.69D-04 Err=  3.98D-06
 Maximum DWI energy   std dev =  0.000000241 at pt    36
 Maximum DWI gradient std dev =  0.029301985 at pt    28
 CORRECTOR INTEGRATION CONVERGENCE:
   Recorrection delta-x convergence threshold:    0.010000
   Delta-x Convergence Met
 Point Number:   4          Path Number:   1
   CHANGE IN THE REACTION COORDINATE =    0.10922
   NET REACTION COORDINATE UP TO THIS POINT =    0.43687
  # OF POINTS ALONG THE PATH =   4
  # OF STEPS =   1

 Calculating another point on the path.
 IRC-IRC-IRC-IRC-IRC-IRC-IRC-IRC-IRC-IRC-IRC-IRC-IRC-IRC-IRC-IRC-IRC-IRC
                          Input orientation:                          
 ---------------------------------------------------------------------
 Center     Atomic      Atomic             Coordinates (Angstroms)
 Number     Number       Type             X           Y           Z
 ---------------------------------------------------------------------
      1          7           0        1.142608   -0.717706   -0.192487
      2          5           0        1.362063    0.697167   -0.163476
      3          7           0       -1.714879    0.025003   -0.248674
      4          5           0       -0.674098    0.133749    0.699863
      5          1           0       -1.879144    0.708477   -0.970411
      6          1           0        1.072615    1.338313   -1.128587
      7          1           0        2.064799    1.147763    0.688971
      8          1           0        1.543502   -1.346319    0.487361
      9          1           0        0.728702   -1.187635   -0.983540
     10          1           0       -2.359632   -0.748529   -0.267274
     11          1           0       -0.625275   -0.571801    1.661016
     12          1           0       -0.110236    1.207345    0.783038
 ---------------------------------------------------------------------
                    Distance matrix (angstroms):
                    1          2          3          4          5
     1  N    0.000000
     2  B    1.432086   0.000000
     3  N    2.952966   3.150656   0.000000
     4  B    2.195833   2.282268   1.412364   0.000000
     5  H    3.430765   3.340164   1.007483   2.138285   0.000000
     6  H    2.260176   1.194272   3.204551   2.800930   3.022349
     7  H    2.259952   1.193123   4.052868   2.920600   4.301303
     8  H    1.008991   2.152289   3.611000   2.674604   4.249917
     9  H    1.008918   2.150844   2.825174   2.558857   3.224326
    10  H    3.503174   3.993974   1.007177   2.134196   1.687642
    11  H    2.565574   2.981370   2.278229   1.193314   3.183662
    12  H    2.495414   1.823139   2.244380   1.215511   2.540175
                    6          7          8          9         10
     6  H    0.000000
     7  H    2.079485   0.000000
     8  H    3.168638   2.555943   0.000000
     9  H    2.553375   3.168049   1.688973   0.000000
    10  H    4.108173   4.907741   4.020110   3.200572   0.000000
    11  H    3.783285   3.337405   2.584752   3.034169   2.599524
    12  H    2.251799   2.177884   3.056710   3.092013   3.160440
                   11         12
    11  H    0.000000
    12  H    2.049749   0.000000
 Symmetry turned off by external request.
 Stoichiometry    B2H8N2
 Framework group  C1[X(B2H8N2)]
 Deg. of freedom    30
 Full point group                 C1      NOp   1
 Rotational constants (GHZ):          13.8998482           4.3105721           4.0400863
 Standard basis: 6-31G(d,p) (6D, 7F)
   100 basis functions,   168 primitive gaussians,   100 cartesian basis functions
    16 alpha electrons       16 beta electrons
       nuclear repulsion energy       112.3458353542 Hartrees.
 NAtoms=   12 NActive=   12 NUniq=   12 SFac= 1.00D+00 NAtFMM=   60 NAOKFM=F Big=F
 Integral buffers will be    131072 words long.
 Raffenetti 2 integral format.
 Two-electron integral symmetry is turned off.
 One-electron integrals computed using PRISM.
 NBasis=   100 RedAO= T EigKep=  6.27D-03  NBF=   100
 NBsUse=   100 1.00D-06 EigRej= -1.00D+00 NBFU=   100
 Initial guess from the checkpoint file:  "/scratch/1311823/Gau-26025.chk"
 B after Tr=    -0.000587   -0.000271    0.000189
         Rot=    1.000000   -0.000305    0.000086   -0.000088 Ang=  -0.04 deg.
 Initial guess <Sx>= 0.0000 <Sy>= 0.0000 <Sz>= 0.0000 <S**2>=-0.0000 S=-0.0000
 ExpMin= 1.27D-01 ExpMax= 4.17D+03 ExpMxC= 6.27D+02 IAcc=2 IRadAn=         4 AccDes= 0.00D+00
 Harris functional with IExCor=  402 and IRadAn=       4 diagonalized for initial guess.
 HarFok:  IExCor=  402 AccDes= 0.00D+00 IRadAn=         4 IDoV= 1 UseB2=F ITyADJ=14
 ICtDFT=  3500011 ScaDFX=  1.000000  1.000000  1.000000  1.000000
 FoFCou: FMM=F IPFlag=           0 FMFlag=      100000 FMFlg1=           0
         NFxFlg=           0 DoJE=T BraDBF=F KetDBF=T FulRan=T
         wScrn=  0.000000 ICntrl=       500 IOpCl=  0 I1Cent=   200000004 NGrid=           0
         NMat0=    1 NMatS0=      1 NMatT0=    0 NMatD0=    1 NMtDS0=    0 NMtDT0=    0
 Symmetry not used in FoFCou.
 Keep R1 and R2 ints in memory in canonical form, NReq=29209606.
 Requested convergence on RMS density matrix=1.00D-08 within1024 cycles.
 Requested convergence on MAX density matrix=1.00D-06.
 Requested convergence on             energy=1.00D-06.
 No special actions if energy rises.
 Integral accuracy reduced to 1.0D-05 until final iterations.
 Initial convergence to 1.0D-05 achieved.  Increase integral accuracy.
 SCF Done:  E(UB3LYP) =  -164.083207264     A.U. after   10 cycles
            NFock= 10  Conv=0.42D-08     -V/T= 2.0098
 <Sx>= 0.0000 <Sy>= 0.0000 <Sz>= 0.0000 <S**2>=-0.0000 S=-0.0000
 <L.S>= 0.000000000000E+00
 Annihilation of the first spin contaminant:
 S**2 before annihilation    -0.0000,   after     0.0000
 DoSCS=F DFT=T ScalE2(SS,OS)=  1.000000  1.000000
 Range of M.O.s used for correlation:     1   100
 NBasis=   100 NAE=    16 NBE=    16 NFC=     0 NFV=     0
 NROrb=    100 NOA=    16 NOB=    16 NVA=    84 NVB=    84
 Symmetrizing basis deriv contribution to polar:
 IMax=3 JMax=2 DiffMx= 0.00D+00
 Calling FoFJK, ICntrl=      2147 FMM=F ISym2X=0 I1Cent= 0 IOpClX= 1 NMat=1 NMatS=1 NMatT=0.
 -------------------------------------------------------------------
 Center     Atomic                   Forces (Hartrees/Bohr)
 Number     Number              X              Y              Z
 -------------------------------------------------------------------
      1        7           0.003353232   -0.000029646   -0.001272581
      2        5           0.002613854   -0.000958285   -0.001275744
      3        7          -0.001201563   -0.000303532   -0.000175437
      4        5          -0.003988590    0.001409470    0.002381667
      5        1          -0.000152399    0.000072136    0.000106424
      6        1          -0.000023171   -0.000036586    0.000026754
      7        1           0.000062680   -0.000025325   -0.000018890
      8        1          -0.000014199    0.000030501    0.000027834
      9        1          -0.000085692    0.000051672    0.000177757
     10        1           0.000084454   -0.000095570   -0.000212817
     11        1          -0.000213159   -0.000233192   -0.000146680
     12        1          -0.000435448    0.000118358    0.000381713
 -------------------------------------------------------------------
 Cartesian Forces:  Max     0.003988590 RMS     0.001154701
 IRC-IRC-IRC-IRC-IRC-IRC-IRC-IRC-IRC-IRC-IRC-IRC-IRC-IRC-IRC-IRC-IRC-IRC
 Pt  5 Step number   1 out of a maximum of  20
 Modified Bulirsch-Stoer Extrapolation Cycles:
    EPS =    0.000010000000000
      PEZero:  N= 2 I= 1 D=  5.69D-04 Err=  3.86D-06
 Maximum DWI energy   std dev =  0.000000254 at pt    47
 Maximum DWI gradient std dev =  0.022847802 at pt    38
 CORRECTOR INTEGRATION CONVERGENCE:
   Recorrection delta-x convergence threshold:    0.010000
   Delta-x Convergence Met
 Point Number:   5          Path Number:   1
   CHANGE IN THE REACTION COORDINATE =    0.10922
   NET REACTION COORDINATE UP TO THIS POINT =    0.54609
  # OF POINTS ALONG THE PATH =   5
  # OF STEPS =   1

 Calculating another point on the path.
 IRC-IRC-IRC-IRC-IRC-IRC-IRC-IRC-IRC-IRC-IRC-IRC-IRC-IRC-IRC-IRC-IRC-IRC
                          Input orientation:                          
 ---------------------------------------------------------------------
 Center     Atomic      Atomic             Coordinates (Angstroms)
 Number     Number       Type             X           Y           Z
 ---------------------------------------------------------------------
      1          7           0        1.149064   -0.717546   -0.194805
      2          5           0        1.368482    0.694734   -0.166586
      3          7           0       -1.717186    0.024459   -0.248995
      4          5           0       -0.683780    0.137353    0.705569
      5          1           0       -1.883105    0.710708   -0.967792
      6          1           0        1.071881    1.337649   -1.128248
      7          1           0        2.066559    1.147207    0.688586
      8          1           0        1.543574   -1.346275    0.488611
      9          1           0        0.725654   -1.187574   -0.980698
     10          1           0       -2.358242   -0.752069   -0.273041
     11          1           0       -0.631048   -0.579142    1.658477
     12          1           0       -0.122135    1.209589    0.793063
 ---------------------------------------------------------------------
                    Distance matrix (angstroms):
                    1          2          3          4          5
     1  N    0.000000
     2  B    1.429502   0.000000
     3  N    2.961233   3.158703   0.000000
     4  B    2.213785   2.298500   1.411335   0.000000
     5  H    3.439690   3.348881   1.007539   2.137114   0.000000
     6  H    2.258561   1.194196   3.205690   2.808191   3.025020
     7  H    2.258203   1.193048   4.056643   2.929924   4.305110
     8  H    1.008958   2.150734   3.613244   2.685019   4.253754
     9  H    1.008875   2.149206   2.823452   2.566209   3.226339
    10  H    3.508348   3.999129   1.007237   2.133676   1.687646
    11  H    2.573443   2.991945   2.276506   1.193390   3.182554
    12  H    2.511111   1.846061   2.243793   1.213585   2.539785
                    6          7          8          9         10
     6  H    0.000000
     7  H    2.080033   0.000000
     8  H    3.168623   2.555573   0.000000
     9  H    2.553114   3.167923   1.689097   0.000000
    10  H    4.106585   4.910279   4.019622   3.193877   0.000000
    11  H    3.786805   3.346350   2.585742   3.029203   2.596895
    12  H    2.265725   2.192074   3.065896   3.100220   3.159882
                   11         12
    11  H    0.000000
    12  H    2.051217   0.000000
 Symmetry turned off by external request.
 Stoichiometry    B2H8N2
 Framework group  C1[X(B2H8N2)]
 Deg. of freedom    30
 Full point group                 C1      NOp   1
 Rotational constants (GHZ):          13.8670435           4.2820257           4.0179144
 Standard basis: 6-31G(d,p) (6D, 7F)
   100 basis functions,   168 primitive gaussians,   100 cartesian basis functions
    16 alpha electrons       16 beta electrons
       nuclear repulsion energy       112.1806086722 Hartrees.
 NAtoms=   12 NActive=   12 NUniq=   12 SFac= 1.00D+00 NAtFMM=   60 NAOKFM=F Big=F
 Integral buffers will be    131072 words long.
 Raffenetti 2 integral format.
 Two-electron integral symmetry is turned off.
 One-electron integrals computed using PRISM.
 NBasis=   100 RedAO= T EigKep=  6.34D-03  NBF=   100
 NBsUse=   100 1.00D-06 EigRej= -1.00D+00 NBFU=   100
 Initial guess from the checkpoint file:  "/scratch/1311823/Gau-26025.chk"
 B after Tr=    -0.000562   -0.000261    0.000177
         Rot=    1.000000   -0.000293    0.000086   -0.000086 Ang=  -0.04 deg.
 Initial guess <Sx>= 0.0000 <Sy>= 0.0000 <Sz>= 0.0000 <S**2>=-0.0000 S=-0.0000
 ExpMin= 1.27D-01 ExpMax= 4.17D+03 ExpMxC= 6.27D+02 IAcc=2 IRadAn=         4 AccDes= 0.00D+00
 Harris functional with IExCor=  402 and IRadAn=       4 diagonalized for initial guess.
 HarFok:  IExCor=  402 AccDes= 0.00D+00 IRadAn=         4 IDoV= 1 UseB2=F ITyADJ=14
 ICtDFT=  3500011 ScaDFX=  1.000000  1.000000  1.000000  1.000000
 FoFCou: FMM=F IPFlag=           0 FMFlag=      100000 FMFlg1=           0
         NFxFlg=           0 DoJE=T BraDBF=F KetDBF=T FulRan=T
         wScrn=  0.000000 ICntrl=       500 IOpCl=  0 I1Cent=   200000004 NGrid=           0
         NMat0=    1 NMatS0=      1 NMatT0=    0 NMatD0=    1 NMtDS0=    0 NMtDT0=    0
 Symmetry not used in FoFCou.
 Keep R1 and R2 ints in memory in canonical form, NReq=29209606.
 Requested convergence on RMS density matrix=1.00D-08 within1024 cycles.
 Requested convergence on MAX density matrix=1.00D-06.
 Requested convergence on             energy=1.00D-06.
 No special actions if energy rises.
 Integral accuracy reduced to 1.0D-05 until final iterations.
 Initial convergence to 1.0D-05 achieved.  Increase integral accuracy.
 SCF Done:  E(UB3LYP) =  -164.083459173     A.U. after    9 cycles
            NFock=  9  Conv=0.39D-08     -V/T= 2.0098
 <Sx>= 0.0000 <Sy>= 0.0000 <Sz>= 0.0000 <S**2>=-0.0000 S=-0.0000
 <L.S>= 0.000000000000E+00
 Annihilation of the first spin contaminant:
 S**2 before annihilation    -0.0000,   after    -0.0000
 DoSCS=F DFT=T ScalE2(SS,OS)=  1.000000  1.000000
 Range of M.O.s used for correlation:     1   100
 NBasis=   100 NAE=    16 NBE=    16 NFC=     0 NFV=     0
 NROrb=    100 NOA=    16 NOB=    16 NVA=    84 NVB=    84
 Symmetrizing basis deriv contribution to polar:
 IMax=3 JMax=2 DiffMx= 0.00D+00
 Calling FoFJK, ICntrl=      2147 FMM=F ISym2X=0 I1Cent= 0 IOpClX= 1 NMat=1 NMatS=1 NMatT=0.
 -------------------------------------------------------------------
 Center     Atomic                   Forces (Hartrees/Bohr)
 Number     Number              X              Y              Z
 -------------------------------------------------------------------
      1        7           0.003815316   -0.000023096   -0.001425089
      2        5           0.003023431   -0.001066795   -0.001468136
      3        7          -0.001405633   -0.000326915   -0.000186481
      4        5          -0.004574346    0.001570902    0.002712761
      5        1          -0.000172133    0.000082006    0.000115334
      6        1          -0.000017058   -0.000040566    0.000022624
      7        1           0.000084876   -0.000027787   -0.000026785
      8        1          -0.000006503    0.000031332    0.000034037
      9        1          -0.000094673    0.000051370    0.000185917
     10        1           0.000094956   -0.000112061   -0.000244861
     11        1          -0.000249061   -0.000265487   -0.000152174
     12        1          -0.000499172    0.000127096    0.000432853
 -------------------------------------------------------------------
 Cartesian Forces:  Max     0.004574346 RMS     0.001319623
 IRC-IRC-IRC-IRC-IRC-IRC-IRC-IRC-IRC-IRC-IRC-IRC-IRC-IRC-IRC-IRC-IRC-IRC
 Pt  6 Step number   1 out of a maximum of  20
 Modified Bulirsch-Stoer Extrapolation Cycles:
    EPS =    0.000010000000000
      PEZero:  N= 2 I= 1 D=  5.69D-04 Err=  4.09D-06
 Maximum DWI energy   std dev =  0.000000261 at pt    47
 Maximum DWI gradient std dev =  0.018734522 at pt    38
 CORRECTOR INTEGRATION CONVERGENCE:
   Recorrection delta-x convergence threshold:    0.010000
   Delta-x Convergence Met
 Point Number:   6          Path Number:   1
   CHANGE IN THE REACTION COORDINATE =    0.10922
   NET REACTION COORDINATE UP TO THIS POINT =    0.65531
  # OF POINTS ALONG THE PATH =   6
  # OF STEPS =   1

 Calculating another point on the path.
 IRC-IRC-IRC-IRC-IRC-IRC-IRC-IRC-IRC-IRC-IRC-IRC-IRC-IRC-IRC-IRC-IRC-IRC
                          Input orientation:                          
 ---------------------------------------------------------------------
 Center     Atomic      Atomic             Coordinates (Angstroms)
 Number     Number       Type             X           Y           Z
 ---------------------------------------------------------------------
      1          7           0        1.155488   -0.717413   -0.197095
      2          5           0        1.374981    0.692388   -0.169720
      3          7           0       -1.719549    0.023954   -0.249293
      4          5           0       -0.693515    0.140829    0.711278
      5          1           0       -1.887039    0.712848   -0.965269
      6          1           0        1.071410    1.336941   -1.128024
      7          1           0        2.068622    1.146643    0.688027
      8          1           0        1.543811   -1.346153    0.489807
      9          1           0        0.722853   -1.187434   -0.977904
     10          1           0       -2.356806   -0.755584   -0.278840
     11          1           0       -0.636954   -0.586227    1.656035
     12          1           0       -0.134022    1.211833    0.803039
 ---------------------------------------------------------------------
                    Distance matrix (angstroms):
                    1          2          3          4          5
     1  N    0.000000
     2  B    1.427048   0.000000
     3  N    2.969544   3.166900   0.000000
     4  B    2.231711   2.314962   1.410356   0.000000
     5  H    3.448581   3.357691   1.007595   2.136005   0.000000
     6  H    2.257005   1.194132   3.207110   2.815791   3.027937
     7  H    2.256538   1.192987   4.060695   2.939661   4.309156
     8  H    1.008931   2.149215   3.615658   2.695512   4.257635
     9  H    1.008838   2.147594   2.821997   2.573658   3.228431
    10  H    3.513452   4.004343   1.007298   2.133173   1.687649
    11  H    2.581501   3.002686   2.274777   1.193472   3.181438
    12  H    2.526874   1.869004   2.243291   1.211818   2.539482
                    6          7          8          9         10
     6  H    0.000000
     7  H    2.080550   0.000000
     8  H    3.168522   2.555142   0.000000
     9  H    2.552743   3.167702   1.689183   0.000000
    10  H    4.105172   4.913015   4.019254   3.187395   0.000000
    11  H    3.790524   3.355596   2.587143   3.024593   2.594285
    12  H    2.279852   2.206608   3.075146   3.108452   3.159424
                   11         12
    11  H    0.000000
    12  H    2.052696   0.000000
 Symmetry turned off by external request.
 Stoichiometry    B2H8N2
 Framework group  C1[X(B2H8N2)]
 Deg. of freedom    30
 Full point group                 C1      NOp   1
 Rotational constants (GHZ):          13.8337938           4.2533669           3.9955180
[...]
 One-electron integrals computed using PRISM.
 NBasis=   100 RedAO= T EigKep=  1.04D-02  NBF=   100
 NBsUse=   100 1.00D-06 EigRej= -1.00D+00 NBFU=   100
 Initial guess from the checkpoint file:  "/scratch/1311823/Gau-26025.chk"
 B after Tr=    -0.000302    0.000022    0.000198
         Rot=    1.000000   -0.000189    0.000036    0.000032 Ang=  -0.02 deg.
 Initial guess <Sx>= 0.0000 <Sy>= 0.0000 <Sz>= 0.0000 <S**2>= 0.0000 S= 0.0000
 ExpMin= 1.27D-01 ExpMax= 4.17D+03 ExpMxC= 6.27D+02 IAcc=2 IRadAn=         4 AccDes= 0.00D+00
 Harris functional with IExCor=  402 and IRadAn=       4 diagonalized for initial guess.
 HarFok:  IExCor=  402 AccDes= 0.00D+00 IRadAn=         4 IDoV= 1 UseB2=F ITyADJ=14
 ICtDFT=  3500011 ScaDFX=  1.000000  1.000000  1.000000  1.000000
 FoFCou: FMM=F IPFlag=           0 FMFlag=      100000 FMFlg1=           0
         NFxFlg=           0 DoJE=T BraDBF=F KetDBF=T FulRan=T
         wScrn=  0.000000 ICntrl=       500 IOpCl=  0 I1Cent=   200000004 NGrid=           0
         NMat0=    1 NMatS0=      1 NMatT0=    0 NMatD0=    1 NMtDS0=    0 NMtDT0=    0
 Symmetry not used in FoFCou.
 Keep R1 and R2 ints in memory in canonical form, NReq=29209606.
 Requested convergence on RMS density matrix=1.00D-08 within1024 cycles.
 Requested convergence on MAX density matrix=1.00D-06.
 Requested convergence on             energy=1.00D-06.
 No special actions if energy rises.
 Integral accuracy reduced to 1.0D-05 until final iterations.
 Initial convergence to 1.0D-05 achieved.  Increase integral accuracy.
 SCF Done:  E(UB3LYP) =  -164.096878354     A.U. after    8 cycles
            NFock=  8  Conv=0.49D-08     -V/T= 2.0100
 <Sx>= 0.0000 <Sy>= 0.0000 <Sz>= 0.0000 <S**2>=-0.0000 S=-0.0000
 <L.S>= 0.000000000000E+00
 Annihilation of the first spin contaminant:
 S**2 before annihilation    -0.0000,   after     0.0000
 DoSCS=F DFT=T ScalE2(SS,OS)=  1.000000  1.000000
 Range of M.O.s used for correlation:     1   100
 NBasis=   100 NAE=    16 NBE=    16 NFC=     0 NFV=     0
 NROrb=    100 NOA=    16 NOB=    16 NVA=    84 NVB=    84
 Symmetrizing basis deriv contribution to polar:
 IMax=3 JMax=2 DiffMx= 0.00D+00
 Calling FoFJK, ICntrl=      2147 FMM=F ISym2X=0 I1Cent= 0 IOpClX= 1 NMat=1 NMatS=1 NMatT=0.
 -------------------------------------------------------------------
 Center     Atomic                   Forces (Hartrees/Bohr)
 Number     Number              X              Y              Z
 -------------------------------------------------------------------
      1        7           0.001346039    0.000619751    0.000651498
      2        5           0.001137710   -0.000189648   -0.000394018
      3        7          -0.000672593    0.000275221   -0.000140703
      4        5          -0.001049696   -0.000208130    0.000425413
      5        1          -0.000033831   -0.000346330    0.000177505
      6        1           0.000004784    0.000045226   -0.000028911
      7        1           0.000148666   -0.000041104   -0.000111579
      8        1           0.000045119    0.000066772   -0.000104622
      9        1          -0.000735512   -0.000352556   -0.000441353
     10        1           0.000009757    0.000180265   -0.000036829
     11        1          -0.000076980    0.000042652   -0.000034005
     12        1          -0.000123464   -0.000092119    0.000037604
 -------------------------------------------------------------------
 Cartesian Forces:  Max     0.001346039 RMS     0.000444637
 IRC-IRC-IRC-IRC-IRC-IRC-IRC-IRC-IRC-IRC-IRC-IRC-IRC-IRC-IRC-IRC-IRC-IRC
 Error in corrector energy =          -0.0000039473
 Magnitude of corrector gradient =     0.0019724688
 Magnitude of analytic gradient =      0.0026678238
 Magnitude of difference =             0.0016099375
 Angle between gradients (degrees)=   36.9016
 Pt 64 Step number  18 out of a maximum of  20
 Modified Bulirsch-Stoer Extrapolation Cycles:
    EPS =    0.000010000000000
      PEZero:  N= 2 I= 1 D=  5.69D-04 Err=  2.94D-05
      PEZero:  N= 3 I= 2 D=  5.69D-04 Err=  1.96D-05
      PEZero:  N= 3 I= 1 D=  1.14D-03 Err=  1.24D-07
 Maximum DWI energy   std dev =  0.000000479 at pt    24
 Maximum DWI gradient std dev =  0.369990118 at pt    57
 CORRECTOR INTEGRATION CONVERGENCE:
   Recorrection delta-x convergence threshold:    0.010000
   Delta-x Convergence NOT Met
 IRC-IRC-IRC-IRC-IRC-IRC-IRC-IRC-IRC-IRC-IRC-IRC-IRC-IRC-IRC-IRC-IRC-IRC
                          Input orientation:                          
 ---------------------------------------------------------------------
 Center     Atomic      Atomic             Coordinates (Angstroms)
 Number     Number       Type             X           Y           Z
 ---------------------------------------------------------------------
      1          7           0        1.488509   -0.709450   -0.258406
      2          5           0        1.819764    0.639718   -0.351264
      3          7           0       -1.963509    0.040860   -0.232848
      4          5           0       -1.235492    0.173419    0.948555
      5          1           0       -2.086312    0.794461   -0.892082
      6          1           0        1.318353    1.301878   -1.211273
      7          1           0        2.611628    1.098861    0.417058
      8          1           0        1.855736   -1.323324    0.453419
      9          1           0        0.795195   -1.146113   -0.849139
     10          1           0       -2.438621   -0.807727   -0.501183
     11          1           0       -1.149915   -0.764714    1.685310
     12          1           0       -0.746364    1.229120    1.216334
 ---------------------------------------------------------------------
                    Distance matrix (angstroms):
                    1          2          3          4          5
     1  N    0.000000
     2  B    1.392339   0.000000
     3  N    3.532711   3.832207   0.000000
     4  B    3.107474   3.352843   1.394020   0.000000
     5  H    3.929712   3.946373   1.008754   2.120739   0.000000
     6  H    2.232118   1.195611   3.649397   3.529930   3.457036
     7  H    2.233302   1.195065   4.740635   3.992401   4.886425
     8  H    1.009154   2.121872   4.113222   3.470028   4.672807
     9  H    1.010111   2.118210   3.065806   3.016050   3.474298
    10  H    3.935854   4.500157   1.008878   2.124124   1.686395
    11  H    3.277555   3.865108   2.233879   1.195920   3.154492
    12  H    3.305687   3.064274   2.234621   1.193925   2.535707
                    6          7          8          9         10
     6  H    0.000000
     7  H    2.089315   0.000000
     8  H    3.154626   2.537652   0.000000
     9  H    2.529327   3.153188   1.689026   0.000000
    10  H    4.366865   5.475697   4.429290   3.270037   0.000000
    11  H    4.330513   4.385269   3.295988   3.217506   2.538378
    12  H    3.187731   3.454261   3.723968   3.504899   3.156318
                   11         12
    11  H    0.000000
    12  H    2.087622   0.000000
 Symmetry turned off by external request.
 Stoichiometry    B2H8N2
 Framework group  C1[X(B2H8N2)]
 Deg. of freedom    30
 Full point group                 C1      NOp   1
 Rotational constants (GHZ):          12.7397039           2.7422336           2.7001435
 Standard basis: 6-31G(d,p) (6D, 7F)
   100 basis functions,   168 primitive gaussians,   100 cartesian basis functions
    16 alpha electrons       16 beta electrons
       nuclear repulsion energy       102.5719312442 Hartrees.
 NAtoms=   12 NActive=   12 NUniq=   12 SFac= 1.00D+00 NAtFMM=   60 NAOKFM=F Big=F
 Integral buffers will be    131072 words long.
 Raffenetti 2 integral format.
 Two-electron integral symmetry is turned off.
 One-electron integrals computed using PRISM.
 NBasis=   100 RedAO= T EigKep=  1.04D-02  NBF=   100
 NBsUse=   100 1.00D-06 EigRej= -1.00D+00 NBFU=   100
 Initial guess from the checkpoint file:  "/scratch/1311823/Gau-26025.chk"
 B after Tr=     0.000301   -0.000022   -0.000198
         Rot=    1.000000    0.000189   -0.000036   -0.000032 Ang=   0.02 deg.
 Initial guess <Sx>= 0.0000 <Sy>= 0.0000 <Sz>= 0.0000 <S**2>=-0.0000 S=-0.0000
 ExpMin= 1.27D-01 ExpMax= 4.17D+03 ExpMxC= 6.27D+02 IAcc=2 IRadAn=         4 AccDes= 0.00D+00
 Harris functional with IExCor=  402 and IRadAn=       4 diagonalized for initial guess.
 HarFok:  IExCor=  402 AccDes= 0.00D+00 IRadAn=         4 IDoV= 1 UseB2=F ITyADJ=14
 ICtDFT=  3500011 ScaDFX=  1.000000  1.000000  1.000000  1.000000
 FoFCou: FMM=F IPFlag=           0 FMFlag=      100000 FMFlg1=           0
         NFxFlg=           0 DoJE=T BraDBF=F KetDBF=T FulRan=T
         wScrn=  0.000000 ICntrl=       500 IOpCl=  0 I1Cent=   200000004 NGrid=           0
         NMat0=    1 NMatS0=      1 NMatT0=    0 NMatD0=    1 NMtDS0=    0 NMtDT0=    0
 Symmetry not used in FoFCou.
 Keep R1 and R2 ints in memory in canonical form, NReq=29209606.
 Requested convergence on RMS density matrix=1.00D-08 within1024 cycles.
 Requested convergence on MAX density matrix=1.00D-06.
 Requested convergence on             energy=1.00D-06.
 No special actions if energy rises.
 Integral accuracy reduced to 1.0D-05 until final iterations.
 Initial convergence to 1.0D-05 achieved.  Increase integral accuracy.
 SCF Done:  E(UB3LYP) =  -164.096877863     A.U. after    8 cycles
            NFock=  8  Conv=0.48D-08     -V/T= 2.0100
 <Sx>= 0.0000 <Sy>= 0.0000 <Sz>= 0.0000 <S**2>=-0.0000 S=-0.0000
 <L.S>= 0.000000000000E+00
 Annihilation of the first spin contaminant:
 S**2 before annihilation    -0.0000,   after    -0.0000
 DoSCS=F DFT=T ScalE2(SS,OS)=  1.000000  1.000000
 Range of M.O.s used for correlation:     1   100
 NBasis=   100 NAE=    16 NBE=    16 NFC=     0 NFV=     0
 NROrb=    100 NOA=    16 NOB=    16 NVA=    84 NVB=    84
 Symmetrizing basis deriv contribution to polar:
 IMax=3 JMax=2 DiffMx= 0.00D+00
 Calling FoFJK, ICntrl=      2147 FMM=F ISym2X=0 I1Cent= 0 IOpClX= 1 NMat=1 NMatS=1 NMatT=0.
 -------------------------------------------------------------------
 Center     Atomic                   Forces (Hartrees/Bohr)
 Number     Number              X              Y              Z
 -------------------------------------------------------------------
      1        7          -0.000186443   -0.000287636   -0.000605015
      2        5           0.001087840    0.000113264   -0.000492263
      3        7          -0.000618055   -0.000345794    0.000125015
      4        5          -0.001032388   -0.000065769    0.000273318
      5        1          -0.000032112    0.000472338   -0.000109527
      6        1           0.000036176   -0.000018530    0.000076069
      7        1           0.000232725   -0.000033422   -0.000138908
      8        1           0.000090348   -0.000089012    0.000070615
      9        1           0.000684437    0.000460936    0.000657251
     10        1          -0.000079180   -0.000177150   -0.000008117
     11        1          -0.000149755   -0.000101228    0.000078990
     12        1          -0.000033593    0.000072003    0.000072572
 -------------------------------------------------------------------
 Cartesian Forces:  Max     0.001087840 RMS     0.000377288
 IRC-IRC-IRC-IRC-IRC-IRC-IRC-IRC-IRC-IRC-IRC-IRC-IRC-IRC-IRC-IRC-IRC-IRC
 Error in corrector energy =          -0.0000040899
 Magnitude of corrector gradient =     0.0019137689
 Magnitude of analytic gradient =      0.0022637254
 Magnitude of difference =             0.0017191571
 Angle between gradients (degrees)=   47.6987
 Pt 64 Step number  19 out of a maximum of  20
 Modified Bulirsch-Stoer Extrapolation Cycles:
    EPS =    0.000010000000000
      PEZero:  N= 2 I= 1 D=  5.69D-04 Err=  8.50D-05
      PEZero:  N= 3 I= 2 D=  5.69D-04 Err=  5.69D-05
      PEZero:  N= 3 I= 1 D=  1.14D-03 Err=  3.04D-07
 Maximum DWI energy   std dev =  0.000001266 at pt    22
 Maximum DWI gradient std dev =  0.677002605 at pt    54
 CORRECTOR INTEGRATION CONVERGENCE:
   Recorrection delta-x convergence threshold:    0.010000
   Delta-x Convergence NOT Met
 IRC-IRC-IRC-IRC-IRC-IRC-IRC-IRC-IRC-IRC-IRC-IRC-IRC-IRC-IRC-IRC-IRC-IRC
                          Input orientation:                          
 ---------------------------------------------------------------------
 Center     Atomic      Atomic             Coordinates (Angstroms)
 Number     Number       Type             X           Y           Z
 ---------------------------------------------------------------------
      1          7           0        1.487723   -0.709445   -0.258127
      2          5           0        1.819830    0.639831   -0.351096
      3          7           0       -1.963495    0.040762   -0.233090
      4          5           0       -1.235586    0.173036    0.948498
      5          1           0       -2.087893    0.798087   -0.889088
      6          1           0        1.318749    1.301850   -1.211026
      7          1           0        2.612453    1.098650    0.416741
      8          1           0        1.854607   -1.323498    0.454079
      9          1           0        0.798090   -1.145735   -0.849695
     10          1           0       -2.438565   -0.807934   -0.502290
     11          1           0       -1.150297   -0.765783    1.685074
     12          1           0       -0.747002    1.229240    1.217087
 ---------------------------------------------------------------------
                    Distance matrix (angstroms):
                    1          2          3          4          5
     1  N    0.000000
     2  B    1.392654   0.000000
     3  N    3.531903   3.832278   0.000000
     4  B    3.106627   3.352970   1.394094   0.000000
     5  H    3.931386   3.947756   1.009628   2.119867   0.000000
     6  H    2.232012   1.195337   3.649634   3.530212   3.458704
     7  H    2.233757   1.195132   4.741382   3.993361   4.887614
     8  H    1.009407   2.122304   4.112336   3.468913   4.674241
     9  H    1.007916   2.116790   3.068277   3.018028   3.479783
    10  H    3.935105   4.500312   1.009180   2.124676   1.688753
    11  H    3.276943   3.865668   2.234090   1.196327   3.154534
    12  H    3.305866   3.065163   2.235028   1.194329   2.533743
                    6          7          8          9         10
     6  H    0.000000
     7  H    2.089159   0.000000
     8  H    3.154706   2.538213   0.000000
     9  H    2.528303   3.151672   1.687500   0.000000
    10  H    4.367024   5.476537   4.428518   3.272725   0.000000
    11  H    4.331130   4.386692   3.294821   3.219569   2.538891
    12  H    3.188782   3.455943   3.723845   3.507050   3.157170
                   11         12
    11  H    0.000000
    12  H    2.088487   0.000000
 Symmetry turned off by external request.
 Stoichiometry    B2H8N2
 Framework group  C1[X(B2H8N2)]
 Deg. of freedom    30
 Full point group                 C1      NOp   1
 Rotational constants (GHZ):          12.7381035           2.7425109           2.7003135
 Standard basis: 6-31G(d,p) (6D, 7F)
   100 basis functions,   168 primitive gaussians,   100 cartesian basis functions
    16 alpha electrons       16 beta electrons
       nuclear repulsion energy       102.5699311780 Hartrees.
 NAtoms=   12 NActive=   12 NUniq=   12 SFac= 1.00D+00 NAtFMM=   60 NAOKFM=F Big=F
 Integral buffers will be    131072 words long.
 Raffenetti 2 integral format.
 Two-electron integral symmetry is turned off.
 One-electron integrals computed using PRISM.
 NBasis=   100 RedAO= T EigKep=  1.04D-02  NBF=   100
 NBsUse=   100 1.00D-06 EigRej= -1.00D+00 NBFU=   100
 Initial guess from the checkpoint file:  "/scratch/1311823/Gau-26025.chk"
 B after Tr=    -0.000301    0.000022    0.000198
         Rot=    1.000000   -0.000189    0.000036    0.000032 Ang=  -0.02 deg.
 Initial guess <Sx>= 0.0000 <Sy>= 0.0000 <Sz>= 0.0000 <S**2>=-0.0000 S=-0.0000
 ExpMin= 1.27D-01 ExpMax= 4.17D+03 ExpMxC= 6.27D+02 IAcc=2 IRadAn=         4 AccDes= 0.00D+00
 Harris functional with IExCor=  402 and IRadAn=       4 diagonalized for initial guess.
 HarFok:  IExCor=  402 AccDes= 0.00D+00 IRadAn=         4 IDoV= 1 UseB2=F ITyADJ=14
 ICtDFT=  3500011 ScaDFX=  1.000000  1.000000  1.000000  1.000000
 FoFCou: FMM=F IPFlag=           0 FMFlag=      100000 FMFlg1=           0
         NFxFlg=           0 DoJE=T BraDBF=F KetDBF=T FulRan=T
         wScrn=  0.000000 ICntrl=       500 IOpCl=  0 I1Cent=   200000004 NGrid=           0
         NMat0=    1 NMatS0=      1 NMatT0=    0 NMatD0=    1 NMtDS0=    0 NMtDT0=    0
 Symmetry not used in FoFCou.
 Keep R1 and R2 ints in memory in canonical form, NReq=29209606.
 Requested convergence on RMS density matrix=1.00D-08 within1024 cycles.
 Requested convergence on MAX density matrix=1.00D-06.
 Requested convergence on             energy=1.00D-06.
 No special actions if energy rises.
 Integral accuracy reduced to 1.0D-05 until final iterations.
 Initial convergence to 1.0D-05 achieved.  Increase integral accuracy.
 SCF Done:  E(UB3LYP) =  -164.096878363     A.U. after    8 cycles
            NFock=  8  Conv=0.49D-08     -V/T= 2.0100
 <Sx>= 0.0000 <Sy>= 0.0000 <Sz>= 0.0000 <S**2>=-0.0000 S=-0.0000
 <L.S>= 0.000000000000E+00
 Annihilation of the first spin contaminant:
 S**2 before annihilation    -0.0000,   after     0.0000
 DoSCS=F DFT=T ScalE2(SS,OS)=  1.000000  1.000000
 Range of M.O.s used for correlation:     1   100
 NBasis=   100 NAE=    16 NBE=    16 NFC=     0 NFV=     0
 NROrb=    100 NOA=    16 NOB=    16 NVA=    84 NVB=    84
 Symmetrizing basis deriv contribution to polar:
 IMax=3 JMax=2 DiffMx= 0.00D+00
 Calling FoFJK, ICntrl=      2147 FMM=F ISym2X=0 I1Cent= 0 IOpClX= 1 NMat=1 NMatS=1 NMatT=0.
 -------------------------------------------------------------------
 Center     Atomic                   Forces (Hartrees/Bohr)
 Number     Number              X              Y              Z
 -------------------------------------------------------------------
      1        7           0.001344285    0.000618909    0.000650535
      2        5           0.001137307   -0.000189216   -0.000394011
      3        7          -0.000672880    0.000273710   -0.000140518
      4        5          -0.001049296   -0.000207799    0.000425198
      5        1          -0.000033851   -0.000345223    0.000177067
      6        1           0.000004920    0.000045157   -0.000028828
      7        1           0.000149024   -0.000041113   -0.000111719
      8        1           0.000045266    0.000066565   -0.000104435
      9        1          -0.000733996   -0.000351884   -0.000440558
     10        1           0.000009901    0.000180355   -0.000036622
     11        1          -0.000077199    0.000042421   -0.000033864
     12        1          -0.000123481   -0.000091881    0.000037757
 -------------------------------------------------------------------
 Cartesian Forces:  Max     0.001344285 RMS     0.000444199
 IRC-IRC-IRC-IRC-IRC-IRC-IRC-IRC-IRC-IRC-IRC-IRC-IRC-IRC-IRC-IRC-IRC-IRC
 Error in corrector energy =          -0.0000039238
 Magnitude of corrector gradient =     0.0019715777
 Magnitude of analytic gradient =      0.0026651967
 Magnitude of difference =             0.0016064607
 Angle between gradients (degrees)=   36.8495
 Pt 64 Step number  20 out of a maximum of  20
 Modified Bulirsch-Stoer Extrapolation Cycles:
    EPS =    0.000010000000000
      PEZero:  N= 2 I= 1 D=  5.69D-04 Err=  2.93D-05
      PEZero:  N= 3 I= 2 D=  5.69D-04 Err=  1.96D-05
      PEZero:  N= 3 I= 1 D=  1.14D-03 Err=  1.24D-07
 Maximum DWI energy   std dev =  0.000000481 at pt    24
 Maximum DWI gradient std dev =  0.371565943 at pt    57
 CORRECTOR INTEGRATION CONVERGENCE:
   Recorrection delta-x convergence threshold:    0.010000
   Delta-x Convergence NOT Met
 Maximum number of corrector steps exceded.
 Error termination via Lnk1e in /opt/gaussian/g16/legacy/g16/l123.exe at Fri Jul  3 17:04:16 2020.
 Job cpu time:       0 days  2 hours 43 minutes  9.9 seconds.
 Elapsed time:       0 days  0 hours 41 minutes 51.2 seconds.
 File lengths (MBytes):  RWF=     29 Int=      0 D2E=      0 Chk=      4 Scr=      1
