 Entering Gaussian System, Link 0=/opt/gaussian/g16/legacy/g16/g16
 Initial command:
 /opt/gaussian/g16/legacy/g16/l1.exe "/scratch/1311826/Gau-2491.inp" -scrdir="/scratch/1311826/"
 Entering Link 1 = /opt/gaussian/g16/legacy/g16/l1.exe PID=      2498.
  
 Copyright (c) 1988,1990,1992,1993,1995,1998,2003,2009,2016,
            Gaussian, Inc.  All Rights Reserved.
  
 This is part of the Gaussian(R) 16 program.  It is based on
 the Gaussian(R) 09 system (copyright 2009, Gaussian, Inc.),
 the Gaussian(R) 03 system (copyright 2003, Gaussian, Inc.),
 the Gaussian(R) 98 system (copyright 1998, Gaussian, Inc.),
 the Gaussian(R) 94 system (copyright 1995, Gaussian, Inc.),
 the Gaussian 92(TM) system (copyright 1992, Gaussian, Inc.),
 the Gaussian 90(TM) system (copyright 1990, Gaussian, Inc.),
 the Gaussian 88(TM) system (copyright 1988, Gaussian, Inc.),
 the Gaussian 86(TM) system (copyright 1986, Carnegie Mellon
 University), and the Gaussian 82(TM) system (copyright 1983,
 Carnegie Mellon University). Gaussian is a federally registered
 trademark of Gaussian, Inc.
  
 This software contains proprietary and confidential information,
 including trade secrets, belonging to Gaussian, Inc.
  
 This software is provided under written license and may be
 used, copied, transmitted, or stored only in accord with that
 written license.
  
 The following legend is applicable only to US Government
 contracts under FAR:
  
                    RESTRICTED RIGHTS LEGEND
  
 Use, reproduction and disclosure by the US Government is
 subject to restrictions as set forth in subparagraphs (a)
 and (c) of the Commercial Computer Software - Restricted
 Rights clause in FAR 52.227-19.
  
 Gaussian, Inc.
 340 Quinnipiac St., Bldg. 40, Wallingford CT 06492
  
  
 ---------------------------------------------------------------
 Warning -- This program may not be used in any manner that
 competes with the business of Gaussian, Inc. or will provide
 assistance to any competitor of Gaussian, Inc.  The licensee
 of this program is prohibited from giving any competitor of
 Gaussian, Inc. access to this program.  By using this program,
 the user acknowledges that Gaussian, Inc. is engaged in the
 business of creating and licensing software in the field of
 computational chemistry and represents and warrants to the
 licensee that it is not a competitor of Gaussian, Inc. and that
 it will not use this program in any manner prohibited above.
 ---------------------------------------------------------------
  

 Cite this work as:
 Gaussian 16, Revision A.03,
 M. J. Frisch, G. W. Trucks, H. B. Schlegel, G. E. Scuseria, 
 M. A. Robb, J. R. Cheeseman, G. Scalmani, V. Barone, 
 G. A. Petersson, H. Nakatsuji, X. Li, M. Caricato, A. V. Marenich, 
 J. Bloino, B. G. Janesko, R. Gomperts, B. Mennucci, H. P. Hratchian, 
 J. V. Ortiz, A. F. Izmaylov, J. L. Sonnenberg, D. Williams-Young, 
 F. Ding, F. Lipparini, F. Egidi, J. Goings, B. Peng, A. Petrone, 
 T. Henderson, D. Ranasinghe, V. G. Zakrzewski, J. Gao, N. Rega, 
 G. Zheng, W. Liang, M. Hada, M. Ehara, K. Toyota, R. Fukuda, 
 J. Hasegawa, M. Ishida, T. Nakajima, Y. Honda, O. Kitao, H. Nakai, 
 T. Vreven, K. Throssell, J. A. Montgomery, Jr., J. E. Peralta, 
 F. Ogliaro, M. J. Bearpark, J. J. Heyd, E. N. Brothers, K. N. Kudin, 
 V. N. Staroverov, T. A. Keith, R. Kobayashi, J. Normand, 
 K. Raghavachari, A. P. Rendell, J. C. Burant, S. S. Iyengar, 
 J. Tomasi, M. Cossi, J. M. Millam, M. Klene, C. Adamo, R. Cammi, 
 J. W. Ochterski, R. L. Martin, K. Morokuma, O. Farkas, 
 J. B. Foresman, and D. J. Fox, Gaussian, Inc., Wallingford CT, 2016.
 
 ******************************************
 Gaussian 16:  EM64L-G16RevA.03 25-Dec-2016
                 3-Jul-2020 
 ******************************************
 %mem=16GB
 %nprocshared=4
 Will use up to    4 processors via shared memory.
 -------------------------------------------------
 # opt freq ub3lyp/6-31G(d,p) scf=(maxcycles=1024)
 -------------------------------------------------
 1/18=20,19=15,26=3,38=1/1,3;
 2/9=110,12=2,17=6,18=5,40=1/2;
 3/5=1,6=6,7=101,11=2,25=1,30=1,71=1,74=-5,116=2/1,2,3;
 4//1;
 5/5=2,7=1024,38=5/2;
 6/7=2,8=2,9=2,10=2,28=1/1;
 7//1,2,3,16;
 1/18=20,19=15,26=3/3(2);
 2/9=110/2;
 99//99;
 2/9=110/2;
 3/5=1,6=6,7=101,11=2,25=1,30=1,71=1,74=-5,116=2/1,2,3;
 4/5=5,16=3,69=1/1;
 5/5=2,7=1024,38=5/2;
 7//1,2,3,16;
 1/18=20,19=15,26=3/3(-5);
 2/9=110/2;
 6/7=2,8=2,9=2,10=2,19=2,28=1/1;
 99/9=1/99;
 ---------------
 something title
 ---------------
 Symbolic Z-matrix:
 Charge =  0 Multiplicity = 1
 N                     0.90012  -0.70848  -0.11614 
 B                     1.22905   0.82224  -0.09224 
 N                    -1.62826   0.05278  -0.2341 
 B                    -0.40318  -0.05669   0.53789 
 H                    -1.64884   0.40433  -1.18286 
 H                     1.14792   1.33344  -1.17198 
 H                     2.13183   1.12573   0.63053 
 H                     1.45698  -1.30538   0.48272 
 H                     0.7646   -1.13014  -1.02683 
 H                    -2.40826  -0.54083  -0.01935 
 H                    -0.48752  -0.34274   1.69717 
 H                     0.1686    1.20846   0.57579 
 

 GradGradGradGradGradGradGradGradGradGradGradGradGradGradGradGradGradGrad
 Berny optimization.
 Initialization pass.
                           ----------------------------
                           !    Initial Parameters    !
                           ! (Angstroms and Degrees)  !
 --------------------------                            --------------------------
 ! Name  Definition              Value          Derivative Info.                !
 --------------------------------------------------------------------------------
 ! R1    R(1,2)                  1.5658         estimate D2E/DX2                !
 ! R2    R(1,4)                  1.5972         estimate D2E/DX2                !
 ! R3    R(1,8)                  1.0124         estimate D2E/DX2                !
 ! R4    R(1,9)                  1.0127         estimate D2E/DX2                !
 ! R5    R(2,4)                  1.958          estimate D2E/DX2                !
 ! R6    R(2,6)                  1.1974         estimate D2E/DX2                !
 ! R7    R(2,7)                  1.1956         estimate D2E/DX2                !
 ! R8    R(2,12)                 1.3115         estimate D2E/DX2                !
 ! R9    R(3,4)                  1.4522         estimate D2E/DX2                !
 ! R10   R(3,5)                  1.012          estimate D2E/DX2                !
 ! R11   R(3,10)                 1.0034         estimate D2E/DX2                !
 ! R12   R(4,11)                 1.197          estimate D2E/DX2                !
 ! R13   R(4,12)                 1.3889         estimate D2E/DX2                !
 ! A1    A(2,1,8)              116.8577         estimate D2E/DX2                !
 ! A2    A(2,1,9)              116.6717         estimate D2E/DX2                !
 ! A3    A(4,1,8)              116.5631         estimate D2E/DX2                !
 ! A4    A(4,1,9)              115.4012         estimate D2E/DX2                !
 ! A5    A(8,1,9)              111.1036         estimate D2E/DX2                !
 ! A6    A(1,2,6)              112.9143         estimate D2E/DX2                !
 ! A7    A(1,2,7)              114.5811         estimate D2E/DX2                !
 ! A8    A(1,2,12)              97.2271         estimate D2E/DX2                !
 ! A9    A(4,2,6)              115.1737         estimate D2E/DX2                !
 ! A10   A(4,2,7)              123.2875         estimate D2E/DX2                !
 ! A11   A(6,2,7)              119.2031         estimate D2E/DX2                !
 ! A12   A(6,2,12)             106.1891         estimate D2E/DX2                !
 ! A13   A(7,2,12)             103.1716         estimate D2E/DX2                !
 ! A14   A(4,3,5)              122.8017         estimate D2E/DX2                !
 ! A15   A(4,3,10)             119.8284         estimate D2E/DX2                !
 ! A16   A(5,3,10)             112.9752         estimate D2E/DX2                !
 ! A17   A(1,4,3)              120.0961         estimate D2E/DX2                !
 ! A18   A(1,4,11)             110.8878         estimate D2E/DX2                !
 ! A19   A(1,4,12)              92.6922         estimate D2E/DX2                !
 ! A20   A(2,4,3)              119.8902         estimate D2E/DX2                !
 ! A21   A(2,4,11)             118.5341         estimate D2E/DX2                !
 ! A22   A(3,4,11)             118.2569         estimate D2E/DX2                !
 ! A23   A(3,4,12)             107.0464         estimate D2E/DX2                !
 ! A24   A(11,4,12)            102.7242         estimate D2E/DX2                !
 ! D1    D(8,1,2,6)            141.8784         estimate D2E/DX2                !
 ! D2    D(8,1,2,7)              0.9952         estimate D2E/DX2                !
 ! D3    D(8,1,2,12)          -107.0998         estimate D2E/DX2                !
 ! D4    D(9,1,2,6)              6.9657         estimate D2E/DX2                !
 ! D5    D(9,1,2,7)           -133.9175         estimate D2E/DX2                !
 ! D6    D(9,1,2,12)           117.9875         estimate D2E/DX2                !
 ! D7    D(8,1,4,3)           -140.6798         estimate D2E/DX2                !
 ! D8    D(8,1,4,11)             3.1113         estimate D2E/DX2                !
 ! D9    D(8,1,4,12)           107.8231         estimate D2E/DX2                !
 ! D10   D(9,1,4,3)             -7.5985         estimate D2E/DX2                !
 ! D11   D(9,1,4,11)           136.1927         estimate D2E/DX2                !
 ! D12   D(9,1,4,12)          -119.0955         estimate D2E/DX2                !
 ! D13   D(6,2,4,3)             -5.7432         estimate D2E/DX2                !
 ! D14   D(6,2,4,11)          -164.8254         estimate D2E/DX2                !
 ! D15   D(7,2,4,3)            156.7183         estimate D2E/DX2                !
 ! D16   D(7,2,4,11)            -2.3638         estimate D2E/DX2                !
 ! D17   D(5,3,4,1)            -46.8687         estimate D2E/DX2                !
 ! D18   D(5,3,4,2)             12.7898         estimate D2E/DX2                !
 ! D19   D(5,3,4,11)           171.9292         estimate D2E/DX2                !
 ! D20   D(5,3,4,12)            56.6933         estimate D2E/DX2                !
 ! D21   D(10,3,4,1)           107.9311         estimate D2E/DX2                !
 ! D22   D(10,3,4,2)           167.5896         estimate D2E/DX2                !
 ! D23   D(10,3,4,11)          -33.2711         estimate D2E/DX2                !
 ! D24   D(10,3,4,12)         -148.507          estimate D2E/DX2                !
 --------------------------------------------------------------------------------
 Trust Radius=3.00D-01 FncErr=1.00D-07 GrdErr=1.00D-06 EigMax=2.50D+02 EigMin=1.00D-04
 Number of steps in this run=     71 maximum allowed number of steps=    100.
 GradGradGradGradGradGradGradGradGradGradGradGradGradGradGradGradGradGrad

                          Input orientation:                          
 ---------------------------------------------------------------------
 Center     Atomic      Atomic             Coordinates (Angstroms)
 Number     Number       Type             X           Y           Z
 ---------------------------------------------------------------------
      1          7           0        0.900120   -0.708480   -0.116140
      2          5           0        1.229050    0.822240   -0.092240
      3          7           0       -1.628260    0.052780   -0.234100
      4          5           0       -0.403180   -0.056690    0.537890
      5          1           0       -1.648840    0.404330   -1.182860
      6          1           0        1.147920    1.333440   -1.171980
      7          1           0        2.131830    1.125730    0.630530
      8          1           0        1.456980   -1.305380    0.482720
      9          1           0        0.764600   -1.130140   -1.026830
     10          1           0       -2.408260   -0.540830   -0.019350
     11          1           0       -0.487520   -0.342740    1.697170
     12          1           0        0.168600    1.208460    0.575790
 ---------------------------------------------------------------------
                    Distance matrix (angstroms):
                    1          2          3          4          5
     1  N    0.000000
     2  B    1.565845   0.000000
     3  N    2.643130   2.962501   0.000000
     4  B    1.597240   1.957998   1.452162   0.000000
     5  H    2.978831   3.105858   1.012006   2.173750   0.000000
     6  H    2.312064   1.197391   3.197950   2.694815   2.947071
     7  H    2.332156   1.195623   4.004633   2.798745   4.254676
     8  H    1.012431   2.215694   3.446322   2.241086   3.917063
     9  H    1.012679   2.213811   2.784511   2.228083   2.864199
    10  H    3.314039   3.885009   1.003439   2.136645   1.680417
    11  H    2.312445   2.739668   2.277614   1.197025   3.193955
    12  H    2.165305   1.311482   2.284781   1.388875   2.653783
                    6          7          8          9         10
     6  H    0.000000
     7  H    2.064041   0.000000
     8  H    3.130003   2.527363   0.000000
     9  H    2.497445   3.115302   1.669982   0.000000
    10  H    4.181849   4.879773   3.971988   3.380731   0.000000
    11  H    3.703548   3.186710   2.486492   3.099674   2.583587
    12  H    2.007333   1.965735   2.826301   2.897008   3.170870
                   11         12
    11  H    0.000000
    12  H    2.023415   0.000000
 Stoichiometry    B2H8N2
 Framework group  C1[X(B2H8N2)]
 Deg. of freedom    30
 Full point group                 C1      NOp   1
 Largest Abelian subgroup         C1      NOp   1
 Largest concise Abelian subgroup C1      NOp   1
                         Standard orientation:                         
 ---------------------------------------------------------------------
 Center     Atomic      Atomic             Coordinates (Angstroms)
 Number     Number       Type             X           Y           Z
 ---------------------------------------------------------------------
      1          7           0        0.843855   -0.734681   -0.250740
      2          5           0        1.270348    0.753751   -0.017196
      3          7           0       -1.633422    0.180676   -0.144154
      4          5           0       -0.391501   -0.113339    0.548639
      5          1           0       -1.664798    0.670303   -1.029274
      6          1           0        1.184169    1.424000   -1.005672
      7          1           0        2.215427    0.893371    0.701724
      8          1           0        1.382178   -1.445383    0.228975
      9          1           0        0.649878   -1.007340   -1.206538
     10          1           0       -2.441672   -0.392169    0.015437
     11          1           0       -0.453209   -0.563614    1.656028
     12          1           0        0.260757    1.096801    0.746366
 ---------------------------------------------------------------------
 Rotational constants (GHZ):          14.6833810           5.2397338           4.7160307
 Standard basis: 6-31G(d,p) (6D, 7F)
 There are   100 symmetry adapted cartesian basis functions of A   symmetry.
 There are   100 symmetry adapted basis functions of A   symmetry.
   100 basis functions,   168 primitive gaussians,   100 cartesian basis functions
    16 alpha electrons       16 beta electrons
       nuclear repulsion energy       117.8507836575 Hartrees.
 NAtoms=   12 NActive=   12 NUniq=   12 SFac= 1.00D+00 NAtFMM=   60 NAOKFM=F Big=F
 Integral buffers will be    131072 words long.
 Raffenetti 2 integral format.
 Two-electron integral symmetry is turned on.
 One-electron integrals computed using PRISM.
 NBasis=   100 RedAO= T EigKep=  3.96D-03  NBF=   100
 NBsUse=   100 1.00D-06 EigRej= -1.00D+00 NBFU=   100
 ExpMin= 1.27D-01 ExpMax= 4.17D+03 ExpMxC= 6.27D+02 IAcc=3 IRadAn=         5 AccDes= 0.00D+00
 Harris functional with IExCor=  402 and IRadAn=       5 diagonalized for initial guess.
 HarFok:  IExCor=  402 AccDes= 0.00D+00 IRadAn=         5 IDoV= 1 UseB2=F ITyADJ=14
 ICtDFT=  3500011 ScaDFX=  1.000000  1.000000  1.000000  1.000000
 FoFCou: FMM=F IPFlag=           0 FMFlag=      100000 FMFlg1=           0
         NFxFlg=           0 DoJE=T BraDBF=F KetDBF=T FulRan=T
         wScrn=  0.000000 ICntrl=       500 IOpCl=  0 I1Cent=   200000004 NGrid=           0
         NMat0=    1 NMatS0=      1 NMatT0=    0 NMatD0=    1 NMtDS0=    0 NMtDT0=    0
 Petite list used in FoFCou.
 Initial guess <Sx>= 0.0000 <Sy>= 0.0000 <Sz>= 0.0000 <S**2>= 0.0000 S= 0.0000
 Keep R1 and R2 ints in memory in canonical form, NReq=29209894.
 Requested convergence on RMS density matrix=1.00D-08 within1024 cycles.
 Requested convergence on MAX density matrix=1.00D-06.
 Requested convergence on             energy=1.00D-06.
 No special actions if energy rises.
 Integral accuracy reduced to 1.0D-05 until final iterations.
 Initial convergence to 1.0D-05 achieved.  Increase integral accuracy.
 SCF Done:  E(UB3LYP) =  -164.096997650     A.U. after   12 cycles
            NFock= 12  Conv=0.60D-08     -V/T= 2.0100
 <Sx>= 0.0000 <Sy>= 0.0000 <Sz>= 0.0000 <S**2>=-0.0000 S=-0.0000
 <L.S>= 0.000000000000E+00
 Annihilation of the first spin contaminant:
 S**2 before annihilation    -0.0000,   after     0.0000

 **********************************************************************

            Population analysis using the SCF density.

 **********************************************************************

 Orbital symmetries:
 Alpha Orbitals:
       Occupied  (A) (A) (A) (A) (A) (A) (A) (A) (A) (A) (A) (A)
                 (A) (A) (A) (A)
       Virtual   (A) (A) (A) (A) (A) (A) (A) (A) (A) (A) (A) (A)
                 (A) (A) (A) (A) (A) (A) (A) (A) (A) (A) (A) (A)
                 (A) (A) (A) (A) (A) (A) (A) (A) (A) (A) (A) (A)
                 (A) (A) (A) (A) (A) (A) (A) (A) (A) (A) (A) (A)
                 (A) (A) (A) (A) (A) (A) (A) (A) (A) (A) (A) (A)
                 (A) (A) (A) (A) (A) (A) (A) (A) (A) (A) (A) (A)
                 (A) (A) (A) (A) (A) (A) (A) (A) (A) (A) (A) (A)
 Beta  Orbitals:
       Occupied  (A) (A) (A) (A) (A) (A) (A) (A) (A) (A) (A) (A)
                 (A) (A) (A) (A)
       Virtual   (A) (A) (A) (A) (A) (A) (A) (A) (A) (A) (A) (A)
                 (A) (A) (A) (A) (A) (A) (A) (A) (A) (A) (A) (A)
                 (A) (A) (A) (A) (A) (A) (A) (A) (A) (A) (A) (A)
                 (A) (A) (A) (A) (A) (A) (A) (A) (A) (A) (A) (A)
                 (A) (A) (A) (A) (A) (A) (A) (A) (A) (A) (A) (A)
                 (A) (A) (A) (A) (A) (A) (A) (A) (A) (A) (A) (A)
                 (A) (A) (A) (A) (A) (A) (A) (A) (A) (A) (A) (A)
 The electronic state is 1-A.
 Alpha  occ. eigenvalues --  -14.36632 -14.28866  -6.75963  -6.72828  -0.91004
 Alpha  occ. eigenvalues --   -0.82466  -0.59864  -0.53428  -0.48621  -0.46427
 Alpha  occ. eigenvalues --   -0.43285  -0.37966  -0.33561  -0.32190  -0.31080
 Alpha  occ. eigenvalues --   -0.22251
 Alpha virt. eigenvalues --    0.05764   0.08893   0.10031   0.10644   0.15892
 Alpha virt. eigenvalues --    0.16417   0.20063   0.21797   0.23953   0.24248
 Alpha virt. eigenvalues --    0.27026   0.31819   0.41987   0.43752   0.45391
 Alpha virt. eigenvalues --    0.49285   0.51479   0.56330   0.67873   0.69184
 Alpha virt. eigenvalues --    0.70260   0.71773   0.76406   0.82619   0.83940
 Alpha virt. eigenvalues --    0.85679   0.87164   0.88725   0.92286   0.92548
 Alpha virt. eigenvalues --    0.95639   0.97580   1.00628   1.10529   1.15028
 Alpha virt. eigenvalues --    1.24746   1.36424   1.41482   1.46920   1.51277
 Alpha virt. eigenvalues --    1.53278   1.60239   1.63469   1.64696   1.68322
 Alpha virt. eigenvalues --    1.77222   1.81436   1.86641   2.00794   2.08161
 Alpha virt. eigenvalues --    2.15197   2.18395   2.20010   2.20354   2.25163
 Alpha virt. eigenvalues --    2.27559   2.35322   2.35350   2.37790   2.40376
 Alpha virt. eigenvalues --    2.48190   2.54462   2.57370   2.61650   2.62493
 Alpha virt. eigenvalues --    2.65585   2.66592   2.73135   2.78349   2.83739
 Alpha virt. eigenvalues --    2.91875   2.94403   3.02629   3.16951   3.21163
 Alpha virt. eigenvalues --    3.23727   3.28401   3.32091   3.45300   3.52413
 Alpha virt. eigenvalues --    3.64120   3.72201   4.18807   4.25870
  Beta  occ. eigenvalues --  -14.36632 -14.28866  -6.75963  -6.72828  -0.91004
  Beta  occ. eigenvalues --   -0.82466  -0.59864  -0.53428  -0.48621  -0.46427
  Beta  occ. eigenvalues --   -0.43285  -0.37966  -0.33561  -0.32190  -0.31080
  Beta  occ. eigenvalues --   -0.22251
  Beta virt. eigenvalues --    0.05764   0.08893   0.10031   0.10644   0.15892
  Beta virt. eigenvalues --    0.16417   0.20063   0.21797   0.23953   0.24248
  Beta virt. eigenvalues --    0.27026   0.31819   0.41987   0.43752   0.45391
  Beta virt. eigenvalues --    0.49285   0.51479   0.56330   0.67873   0.69184
  Beta virt. eigenvalues --    0.70260   0.71773   0.76406   0.82619   0.83940
  Beta virt. eigenvalues --    0.85679   0.87164   0.88725   0.92286   0.92548
  Beta virt. eigenvalues --    0.95639   0.97580   1.00628   1.10529   1.15028
  Beta virt. eigenvalues --    1.24746   1.36424   1.41482   1.46920   1.51277
  Beta virt. eigenvalues --    1.53278   1.60239   1.63469   1.64696   1.68322
  Beta virt. eigenvalues --    1.77222   1.81436   1.86641   2.00794   2.08161
  Beta virt. eigenvalues --    2.15197   2.18395   2.20010   2.20354   2.25163
  Beta virt. eigenvalues --    2.27559   2.35322   2.35350   2.37790   2.40376
  Beta virt. eigenvalues --    2.48190   2.54462   2.57370   2.61650   2.62493
  Beta virt. eigenvalues --    2.65585   2.66592   2.73135   2.78349   2.83739
  Beta virt. eigenvalues --    2.91875   2.94403   3.02629   3.16951   3.21163
  Beta virt. eigenvalues --    3.23727   3.28401   3.32091   3.45300   3.52413
  Beta virt. eigenvalues --    3.64120   3.72201   4.18807   4.25870
          Condensed to atoms (all electrons):
               1          2          3          4          5          6
     1  N    6.619549   0.239843  -0.041201   0.194223  -0.001405  -0.020796
     2  B    0.239843   3.606400  -0.007230   0.089161  -0.000666   0.413585
     3  N   -0.041201  -0.007230   6.576579   0.455786   0.353565  -0.001531
     4  B    0.194223   0.089161   0.455786   3.448486  -0.040686  -0.011015
     5  H   -0.001405  -0.000666   0.353565  -0.040686   0.479483   0.001781
     6  H   -0.020796   0.413585  -0.001531  -0.011015   0.001781   0.715123
     7  H   -0.015408   0.408954   0.000489  -0.007970  -0.000020  -0.011147
     8  H    0.346528  -0.019062   0.001559  -0.010826  -0.000003   0.002208
     9  H    0.338692  -0.019902   0.004046  -0.010287   0.001512  -0.004160
    10  H    0.000476   0.000985   0.361158  -0.033403  -0.029755   0.000022
    11  H   -0.034090  -0.010815  -0.020338   0.398480   0.003766   0.000919
    12  H   -0.081254   0.252833  -0.028368   0.195950  -0.001195  -0.014231
               7          8          9         10         11         12
     1  N   -0.015408   0.346528   0.338692   0.000476  -0.034090  -0.081254
     2  B    0.408954  -0.019062  -0.019902   0.000985  -0.010815   0.252833
     3  N    0.000489   0.001559   0.004046   0.361158  -0.020338  -0.028368
     4  B   -0.007970  -0.010826  -0.010287  -0.033403   0.398480   0.195950
     5  H   -0.000020  -0.000003   0.001512  -0.029755   0.003766  -0.001195
     6  H   -0.011147   0.002208  -0.004160   0.000022   0.000919  -0.014231
     7  H    0.713371  -0.004863   0.001367  -0.000025  -0.000969  -0.018815
     8  H   -0.004863   0.420029  -0.022779  -0.000023  -0.001480   0.003783
     9  H    0.001367  -0.022779   0.428672   0.000187   0.002591   0.004327
    10  H   -0.000025  -0.000023   0.000187   0.462808  -0.002448   0.002145
    11  H   -0.000969  -0.001480   0.002591  -0.002448   0.750386  -0.005295
    12  H   -0.018815   0.003783   0.004327   0.002145  -0.005295   0.684189
          Atomic-Atomic Spin Densities.
               1          2          3          4          5          6
     1  N    0.000000  -0.000000   0.000000   0.000000  -0.000000  -0.000000
     2  B   -0.000000  -0.000000  -0.000000   0.000000   0.000000   0.000000
     3  N    0.000000  -0.000000  -0.000000   0.000000   0.000000   0.000000
     4  B    0.000000   0.000000   0.000000   0.000000  -0.000000  -0.000000
     5  H   -0.000000   0.000000   0.000000  -0.000000   0.000000  -0.000000
     6  H   -0.000000   0.000000   0.000000  -0.000000  -0.000000   0.000000
     7  H   -0.000000  -0.000000   0.000000   0.000000   0.000000  -0.000000
     8  H    0.000000  -0.000000  -0.000000  -0.000000  -0.000000   0.000000
     9  H    0.000000  -0.000000   0.000000  -0.000000  -0.000000  -0.000000
    10  H   -0.000000  -0.000000  -0.000000   0.000000   0.000000   0.000000
    11  H   -0.000000  -0.000000  -0.000000  -0.000000  -0.000000  -0.000000
    12  H   -0.000000  -0.000000  -0.000000   0.000000  -0.000000   0.000000
               7          8          9         10         11         12
     1  N   -0.000000   0.000000   0.000000  -0.000000  -0.000000  -0.000000
     2  B   -0.000000  -0.000000  -0.000000  -0.000000  -0.000000  -0.000000
     3  N    0.000000  -0.000000   0.000000  -0.000000  -0.000000  -0.000000
     4  B    0.000000  -0.000000  -0.000000   0.000000  -0.000000   0.000000
     5  H    0.000000  -0.000000  -0.000000   0.000000  -0.000000  -0.000000
     6  H   -0.000000   0.000000  -0.000000   0.000000  -0.000000   0.000000
     7  H    0.000000  -0.000000   0.000000  -0.000000  -0.000000  -0.000000
     8  H   -0.000000   0.000000   0.000000   0.000000  -0.000000  -0.000000
     9  H    0.000000   0.000000   0.000000  -0.000000  -0.000000   0.000000
    10  H   -0.000000   0.000000  -0.000000  -0.000000   0.000000  -0.000000
    11  H   -0.000000  -0.000000  -0.000000   0.000000   0.000000   0.000000
    12  H   -0.000000  -0.000000   0.000000  -0.000000   0.000000  -0.000000
 Mulliken charges and spin densities:
               1          2
     1  N   -0.545158   0.000000
     2  B    0.045914  -0.000000
     3  N   -0.654514  -0.000000
     4  B    0.332100   0.000000
     5  H    0.233622   0.000000
     6  H   -0.070759   0.000000
     7  H   -0.064965   0.000000
     8  H    0.284928   0.000000
     9  H    0.275735   0.000000
    10  H    0.237872  -0.000000
    11  H   -0.080706  -0.000000
    12  H    0.005931  -0.000000
 Sum of Mulliken charges =  -0.00000  -0.00000
 Mulliken charges and spin densities with hydrogens summed into heavy atoms:
               1          2
     1  N    0.015505   0.000000
     2  B   -0.083879  -0.000000
     3  N   -0.183020  -0.000000
     4  B    0.251395   0.000000
 Electronic spatial extent (au):  <R**2>=            326.1011
 Charge=              0.0000 electrons
 Dipole moment (field-independent basis, Debye):
    X=             -0.3339    Y=             -2.7434    Z=             -1.7386  Tot=              3.2650
 Quadrupole moment (field-independent basis, Debye-Ang):
   XX=            -27.1522   YY=            -26.3798   ZZ=            -26.8881
   XY=             -2.9325   XZ=              1.5462   YZ=              0.4850
 Traceless Quadrupole moment (field-independent basis, Debye-Ang):
   XX=             -0.3455   YY=              0.4269   ZZ=             -0.0814
   XY=             -2.9325   XZ=              1.5462   YZ=              0.4850
 Octapole moment (field-independent basis, Debye-Ang**2):
  XXX=            -18.5969  YYY=            -12.4059  ZZZ=            -10.1949  XYY=             -0.3292
  XXY=            -12.4608  XXZ=             -4.1280  XZZ=             -2.9399  YZZ=             -3.2397
  YYZ=             -2.0136  XYZ=              2.0894
 Hexadecapole moment (field-independent basis, Debye-Ang**3):
 XXXX=           -259.2316 YYYY=            -99.5187 ZZZZ=            -77.8655 XXXY=            -10.4925
 XXXZ=              5.7917 YYYX=            -17.6822 YYYZ=              3.0809 ZZZX=              3.3757
 ZZZY=              4.5027 XXYY=            -61.8079 XXZZ=            -58.0048 YYZZ=            -28.7759
 XXYZ=             -4.0994 YYXZ=              2.8641 ZZXY=             -7.7119
 N-N= 1.178507836575D+02 E-N=-6.158676647830D+02  KE= 1.624704407858D+02
                          Isotropic Fermi Contact Couplings
        Atom                 a.u.       MegaHertz       Gauss      10(-4) cm-1
     1  N(14)              0.00000       0.00000       0.00000       0.00000
     2  B(11)             -0.00000      -0.00000      -0.00000      -0.00000
     3  N(14)             -0.00000      -0.00000      -0.00000      -0.00000
     4  B(11)             -0.00000      -0.00000      -0.00000      -0.00000
     5  H(1)               0.00000       0.00000       0.00000       0.00000
     6  H(1)              -0.00000      -0.00000      -0.00000      -0.00000
     7  H(1)               0.00000       0.00000       0.00000       0.00000
     8  H(1)               0.00000       0.00000       0.00000       0.00000
     9  H(1)              -0.00000      -0.00000      -0.00000      -0.00000
    10  H(1)              -0.00000      -0.00000      -0.00000      -0.00000
    11  H(1)               0.00000       0.00000       0.00000       0.00000
    12  H(1)              -0.00000      -0.00000      -0.00000      -0.00000
 --------------------------------------------------------
       Center         ----  Spin Dipole Couplings  ----
                      3XX-RR        3YY-RR        3ZZ-RR
 --------------------------------------------------------
     1   Atom        0.000000      0.000000      0.000000
     2   Atom        0.000000      0.000000      0.000000
     3   Atom        0.000000      0.000000      0.000000
     4   Atom        0.000000      0.000000      0.000000
     5   Atom        0.000000      0.000000      0.000000
     6   Atom        0.000000      0.000000      0.000000
     7   Atom        0.000000      0.000000      0.000000
     8   Atom        0.000000      0.000000      0.000000
     9   Atom        0.000000      0.000000      0.000000
    10   Atom        0.000000      0.000000      0.000000
    11   Atom        0.000000      0.000000      0.000000
    12   Atom        0.000000      0.000000      0.000000
 --------------------------------------------------------
                        XY            XZ            YZ
 --------------------------------------------------------
     1   Atom        0.000000      0.000000      0.000000
     2   Atom        0.000000      0.000000      0.000000
     3   Atom        0.000000      0.000000      0.000000
     4   Atom        0.000000      0.000000      0.000000
     5   Atom        0.000000      0.000000      0.000000
     6   Atom        0.000000      0.000000      0.000000
     7   Atom        0.000000      0.000000      0.000000
     8   Atom        0.000000      0.000000      0.000000
     9   Atom        0.000000      0.000000      0.000000
    10   Atom        0.000000      0.000000      0.000000
    11   Atom        0.000000      0.000000      0.000000
    12   Atom        0.000000      0.000000      0.000000
 --------------------------------------------------------


 ---------------------------------------------------------------------------------
              Anisotropic Spin Dipole Couplings in Principal Axis System
 ---------------------------------------------------------------------------------

       Atom             a.u.   MegaHertz   Gauss  10(-4) cm-1        Axes

              Baa     0.0000     0.000     0.000     0.000  1.0000  0.0000  0.0000
     1 N(14)  Bbb     0.0000     0.000     0.000     0.000 -0.0000  1.0000  0.0000
              Bcc     0.0000     0.000     0.000     0.000  0.0000  0.0000  1.0000
 
              Baa     0.0000     0.000     0.000     0.000  1.0000  0.0000  0.0000
     2 B(11)  Bbb     0.0000     0.000     0.000     0.000 -0.0000  1.0000  0.0000
              Bcc     0.0000     0.000     0.000     0.000  0.0000  0.0000  1.0000
 
              Baa     0.0000     0.000     0.000     0.000  1.0000  0.0000  0.0000
     3 N(14)  Bbb     0.0000     0.000     0.000     0.000 -0.0000  1.0000  0.0000
              Bcc     0.0000     0.000     0.000     0.000  0.0000  0.0000  1.0000
 
              Baa     0.0000     0.000     0.000     0.000  1.0000  0.0000  0.0000
     4 B(11)  Bbb     0.0000     0.000     0.000     0.000 -0.0000  1.0000  0.0000
              Bcc     0.0000     0.000     0.000     0.000  0.0000  0.0000  1.0000
 
              Baa     0.0000     0.000     0.000     0.000  1.0000  0.0000  0.0000
     5 H(1)   Bbb     0.0000     0.000     0.000     0.000 -0.0000  1.0000  0.0000
              Bcc     0.0000     0.000     0.000     0.000  0.0000  0.0000  1.0000
 
              Baa     0.0000     0.000     0.000     0.000  1.0000  0.0000  0.0000
     6 H(1)   Bbb     0.0000     0.000     0.000     0.000 -0.0000  1.0000  0.0000
              Bcc     0.0000     0.000     0.000     0.000  0.0000  0.0000  1.0000
 
              Baa     0.0000     0.000     0.000     0.000  1.0000  0.0000  0.0000
     7 H(1)   Bbb     0.0000     0.000     0.000     0.000 -0.0000  1.0000  0.0000
              Bcc     0.0000     0.000     0.000     0.000  0.0000  0.0000  1.0000
 
              Baa     0.0000     0.000     0.000     0.000  1.0000  0.0000  0.0000
     8 H(1)   Bbb     0.0000     0.000     0.000     0.000 -0.0000  1.0000  0.0000
              Bcc     0.0000     0.000     0.000     0.000  0.0000  0.0000  1.0000
 
              Baa     0.0000     0.000     0.000     0.000  1.0000  0.0000  0.0000
     9 H(1)   Bbb     0.0000     0.000     0.000     0.000 -0.0000  1.0000  0.0000
              Bcc     0.0000     0.000     0.000     0.000  0.0000  0.0000  1.0000
 
              Baa     0.0000     0.000     0.000     0.000  1.0000  0.0000  0.0000
    10 H(1)   Bbb     0.0000     0.000     0.000     0.000 -0.0000  1.0000  0.0000
              Bcc     0.0000     0.000     0.000     0.000  0.0000  0.0000  1.0000
 
              Baa     0.0000     0.000     0.000     0.000  1.0000  0.0000  0.0000
    11 H(1)   Bbb     0.0000     0.000     0.000     0.000 -0.0000  1.0000  0.0000
              Bcc     0.0000     0.000     0.000     0.000  0.0000  0.0000  1.0000
 
              Baa     0.0000     0.000     0.000     0.000  1.0000  0.0000  0.0000
    12 H(1)   Bbb     0.0000     0.000     0.000     0.000 -0.0000  1.0000  0.0000
              Bcc     0.0000     0.000     0.000     0.000  0.0000  0.0000  1.0000
 

 ---------------------------------------------------------------------------------

 Calling FoFJK, ICntrl=      2127 FMM=F ISym2X=0 I1Cent= 0 IOpClX= 1 NMat=1 NMatS=1 NMatT=0.
 ***** Axes restored to original set *****
 -------------------------------------------------------------------
 Center     Atomic                   Forces (Hartrees/Bohr)
 Number     Number              X              Y              Z
 -------------------------------------------------------------------
      1        7          -0.002350014    0.000548749   -0.000010678
      2        5           0.000051532    0.001303863    0.000287700
      3        7           0.003719079    0.003277156   -0.004099595
      4        5           0.000604661   -0.001748762    0.000061429
      5        1           0.000517250   -0.002348264    0.002380878
      6        1          -0.000089574    0.000080059    0.000021044
      7        1           0.000206732   -0.000077156   -0.000114751
      8        1           0.000022550   -0.000012033   -0.000139305
      9        1           0.000088285    0.000011986   -0.000120189
     10        1          -0.002711764   -0.000999672    0.001428714
     11        1          -0.000155591   -0.000047512    0.000081571
     12        1           0.000096852    0.000011586    0.000223182
 -------------------------------------------------------------------
 Cartesian Forces:  Max     0.004099595 RMS     0.001438278

 GradGradGradGradGradGradGradGradGradGradGradGradGradGradGradGradGradGrad
 Berny optimization.
 FormGI is forming the generalized inverse of G from B-inverse, IUseBI=4.
 Internal  Forces:  Max     0.003058517 RMS     0.000718807
 Search for a local minimum.
 Step number   1 out of a maximum of   71
 All quantities printed in internal units (Hartrees-Bohrs-Radians)
 Mixed Optimization -- En-DIIS/RFO-DIIS
 Second derivative matrix not updated -- first step.
 ITU=  0
     Eigenvalues ---    0.01531   0.01678   0.01831   0.02459   0.03282
     Eigenvalues ---    0.03325   0.03950   0.04272   0.06456   0.08360
     Eigenvalues ---    0.10407   0.11741   0.12675   0.13705   0.15001
     Eigenvalues ---    0.16000   0.16000   0.16302   0.16723   0.17299
     Eigenvalues ---    0.22151   0.23939   0.24857   0.24884   0.24988
     Eigenvalues ---    0.37963   0.45527   0.45568   0.45638   0.47089
 RFO step:  Lambda=-2.51707064D-04 EMin= 1.53108328D-02
 Linear search not attempted -- first point.
 Iteration  1 RMS(Cart)=  0.01220041 RMS(Int)=  0.00018090
 Iteration  2 RMS(Cart)=  0.00018271 RMS(Int)=  0.00000405
 Iteration  3 RMS(Cart)=  0.00000004 RMS(Int)=  0.00000405
 Variable       Old X    -DE/DX   Delta X   Delta X   Delta X     New X
                                 (Linear)    (Quad)   (Total)
    R1        2.95902   0.00074   0.00000   0.00247   0.00247   2.96149
    R2        3.01835  -0.00172   0.00000  -0.00791  -0.00792   3.01043
    R3        1.91322  -0.00006   0.00000  -0.00014  -0.00014   1.91308
    R4        1.91369   0.00009   0.00000   0.00020   0.00020   1.91389
    R5        3.70008  -0.00001   0.00000   0.00176   0.00176   3.70184
    R6        2.26274   0.00002   0.00000   0.00009   0.00009   2.26283
    R7        2.25940   0.00007   0.00000   0.00027   0.00027   2.25967
    R8        2.47834  -0.00037   0.00000  -0.00190  -0.00189   2.47645
    R9        2.74419  -0.00114   0.00000  -0.00299  -0.00299   2.74119
   R10        1.91241  -0.00306   0.00000  -0.00670  -0.00670   1.90572
   R11        1.89623   0.00301   0.00000   0.00638   0.00638   1.90260
   R12        2.26205   0.00010   0.00000   0.00041   0.00041   2.26246
   R13        2.62459   0.00027   0.00000   0.00201   0.00201   2.62660
    A1        2.03955  -0.00014   0.00000  -0.00036  -0.00035   2.03920
    A2        2.03631  -0.00002   0.00000  -0.00135  -0.00135   2.03496
    A3        2.03441  -0.00015   0.00000   0.00073   0.00073   2.03514
    A4        2.01413   0.00008   0.00000   0.00047   0.00047   2.01460
    A5        1.93912   0.00003   0.00000  -0.00083  -0.00083   1.93830
    A6        1.97073  -0.00043   0.00000   0.00009   0.00009   1.97082
    A7        1.99982   0.00076   0.00000   0.00031   0.00031   2.00013
    A8        1.69693  -0.00053   0.00000  -0.00276  -0.00276   1.69417
    A9        2.01016  -0.00006   0.00000   0.00035   0.00035   2.01051
   A10        2.15177   0.00024   0.00000   0.00018   0.00018   2.15195
   A11        2.08049  -0.00010   0.00000   0.00023   0.00023   2.08072
   A12        1.85335   0.00026   0.00000  -0.00152  -0.00152   1.85183
   A13        1.80068  -0.00005   0.00000   0.00312   0.00312   1.80380
   A14        2.14329  -0.00033   0.00000  -0.00276  -0.00277   2.14053
   A15        2.09140   0.00008   0.00000  -0.00018  -0.00019   2.09121
   A16        1.97179   0.00019   0.00000   0.00043   0.00042   1.97221
   A17        2.09607  -0.00136   0.00000  -0.01012  -0.01012   2.08595
   A18        1.93536   0.00069   0.00000   0.00719   0.00720   1.94255
   A19        1.61778   0.00028   0.00000   0.00024   0.00024   1.61802
   A20        2.09248  -0.00078   0.00000  -0.00303  -0.00303   2.08945
   A21        2.06881   0.00025   0.00000   0.00037   0.00037   2.06918
   A22        2.06397   0.00055   0.00000   0.00278   0.00279   2.06676
   A23        1.86831   0.00005   0.00000   0.00272   0.00272   1.87103
   A24        1.79288  -0.00016   0.00000  -0.00289  -0.00289   1.78999
    D1        2.47625  -0.00001   0.00000  -0.00145  -0.00145   2.47480
    D2        0.01737  -0.00024   0.00000  -0.00233  -0.00233   0.01504
    D3       -1.86924  -0.00012   0.00000  -0.00452  -0.00452  -1.87376
    D4        0.12157   0.00014   0.00000   0.00198   0.00198   0.12356
    D5       -2.33730  -0.00008   0.00000   0.00110   0.00110  -2.33620
    D6        2.05927   0.00004   0.00000  -0.00109  -0.00109   2.05818
    D7       -2.45533  -0.00001   0.00000   0.00375   0.00376  -2.45157
    D8        0.05430   0.00010   0.00000   0.00513   0.00513   0.05943
    D9        1.88187   0.00013   0.00000   0.00318   0.00318   1.88505
   D10       -0.13262  -0.00005   0.00000   0.00379   0.00380  -0.12882
   D11        2.37701   0.00005   0.00000   0.00518   0.00517   2.38218
   D12       -2.07861   0.00009   0.00000   0.00323   0.00322  -2.07539
   D13       -0.10024   0.00041   0.00000   0.00983   0.00983  -0.09041
   D14       -2.87675   0.00021   0.00000   0.00887   0.00887  -2.86788
   D15        2.73525   0.00064   0.00000   0.01265   0.01265   2.74790
   D16       -0.04126   0.00044   0.00000   0.01169   0.01169  -0.02957
   D17       -0.81801   0.00073   0.00000   0.03916   0.03916  -0.77885
   D18        0.22322   0.00050   0.00000   0.03616   0.03617   0.25939
   D19        3.00073   0.00064   0.00000   0.03663   0.03663   3.03736
   D20        0.98948   0.00049   0.00000   0.03667   0.03666   1.02614
   D21        1.88375   0.00060   0.00000   0.03244   0.03245   1.91620
   D22        2.92499   0.00037   0.00000   0.02945   0.02946   2.95445
   D23       -0.58069   0.00052   0.00000   0.02992   0.02992  -0.55077
   D24       -2.59194   0.00036   0.00000   0.02996   0.02995  -2.56199
         Item               Value     Threshold  Converged?
 Maximum Force            0.003059     0.000450     NO 
 RMS     Force            0.000719     0.000300     NO 
 Maximum Displacement     0.064959     0.001800     NO 
 RMS     Displacement     0.012185     0.001200     NO 
 Predicted change in Energy=-1.271259D-04
 GradGradGradGradGradGradGradGradGradGradGradGradGradGradGradGradGradGrad

                          Input orientation:                          
 ---------------------------------------------------------------------
 Center     Atomic      Atomic             Coordinates (Angstroms)
 Number     Number       Type             X           Y           Z
 ---------------------------------------------------------------------
      1          7           0        0.894007   -0.705247   -0.119289
      2          5           0        1.229731    0.825229   -0.089379
      3          7           0       -1.622733    0.050429   -0.237323
      4          5           0       -0.402685   -0.055909    0.540076
      5          1           0       -1.632195    0.369955   -1.193780
      6          1           0        1.147210    1.341887   -1.166464
      7          1           0        2.135613    1.122091    0.632496
      8          1           0        1.451329   -1.307087    0.474048
      9          1           0        0.755675   -1.121321   -1.032240
     10          1           0       -2.414593   -0.527444   -0.007768
     11          1           0       -0.489119   -0.339430    1.700045
     12          1           0        0.170798    1.209569    0.580178
 ---------------------------------------------------------------------
                    Distance matrix (angstroms):
                    1          2          3          4          5
     1  N    0.000000
     2  B    1.567151   0.000000
     3  N    2.630391   2.959519   0.000000
     4  B    1.593051   1.958928   1.450577   0.000000
     5  H    2.948268   3.101224   1.008462   2.167789   0.000000
     6  H    2.313318   1.197437   3.194331   2.695975   2.944570
     7  H    2.333651   1.195765   4.003774   2.799854   4.254100
     8  H    1.012358   2.216603   3.434932   2.237672   3.886160
     9  H    1.012785   2.214220   2.767980   2.224653   2.819915
    10  H    3.315251   3.888121   1.006815   2.137815   1.680505
    11  H    2.314484   2.740970   2.278259   1.197240   3.191249
    12  H    2.163055   1.310482   2.286628   1.389937   2.665082
                    6          7          8          9         10
     6  H    0.000000
     7  H    2.064341   0.000000
     8  H    3.130628   2.528687   0.000000
     9  H    2.497741   3.115842   1.669535   0.000000
    10  H    4.186098   4.882139   3.973077   3.384204   0.000000
    11  H    3.704223   3.188248   2.490937   3.102620   2.580586
    12  H    2.005404   1.967457   2.825700   2.893963   3.169723
                   11         12
    11  H    0.000000
    12  H    2.022125   0.000000
 Stoichiometry    B2H8N2
 Framework group  C1[X(B2H8N2)]
 Deg. of freedom    30
 Full point group                 C1      NOp   1
 Largest Abelian subgroup         C1      NOp   1
 Largest concise Abelian subgroup C1      NOp   1
                         Standard orientation:                         
 ---------------------------------------------------------------------
 Center     Atomic      Atomic             Coordinates (Angstroms)
 Number     Number       Type             X           Y           Z
 ---------------------------------------------------------------------
      1          7           0        0.833992   -0.737549   -0.247226
      2          5           0        1.274899    0.749195   -0.021054
      3          7           0       -1.627489    0.184468   -0.147456
      4          5           0       -0.390954   -0.107069    0.552659
      5          1           0       -1.648729    0.635491   -1.049189
      6          1           0        1.190103    1.416587   -1.011636
      7          1           0        2.223944    0.883666    0.693847
      8          1           0        1.369248   -1.450916    0.231812
      9          1           0        0.635272   -1.011311   -1.201846
     10          1           0       -2.448578   -0.368861    0.035069
     11          1           0       -0.455668   -0.545135    1.664995
     12          1           0        0.269160    1.101417    0.741698
 ---------------------------------------------------------------------
 Rotational constants (GHZ):          14.6850993           5.2559186           4.7380651
 Standard basis: 6-31G(d,p) (6D, 7F)
 There are   100 symmetry adapted cartesian basis functions of A   symmetry.
 There are   100 symmetry adapted basis functions of A   symmetry.
   100 basis functions,   168 primitive gaussians,   100 cartesian basis functions
    16 alpha electrons       16 beta electrons
       nuclear repulsion energy       117.9659024561 Hartrees.
 NAtoms=   12 NActive=   12 NUniq=   12 SFac= 1.00D+00 NAtFMM=   60 NAOKFM=F Big=F
 Integral buffers will be    131072 words long.
 Raffenetti 2 integral format.
 Two-electron integral symmetry is turned on.
 One-electron integrals computed using PRISM.
 NBasis=   100 RedAO= T EigKep=  3.90D-03  NBF=   100
 NBsUse=   100 1.00D-06 EigRej= -1.00D+00 NBFU=   100
 Initial guess from the checkpoint file:  "/scratch/1311826/Gau-2498.chk"
 B after Tr=     0.000000   -0.000000    0.000000
         Rot=    0.999990    0.003846   -0.000203    0.002284 Ang=   0.51 deg.
 Initial guess <Sx>= 0.0000 <Sy>= 0.0000 <Sz>= 0.0000 <S**2>=-0.0000 S=-0.0000
 ExpMin= 1.27D-01 ExpMax= 4.17D+03 ExpMxC= 6.27D+02 IAcc=2 IRadAn=         4 AccDes= 0.00D+00
 Harris functional with IExCor=  402 and IRadAn=       4 diagonalized for initial guess.
 HarFok:  IExCor=  402 AccDes= 0.00D+00 IRadAn=         4 IDoV= 1 UseB2=F ITyADJ=14
 ICtDFT=  3500011 ScaDFX=  1.000000  1.000000  1.000000  1.000000
 FoFCou: FMM=F IPFlag=           0 FMFlag=      100000 FMFlg1=           0
         NFxFlg=           0 DoJE=T BraDBF=F KetDBF=T FulRan=T
         wScrn=  0.000000 ICntrl=       500 IOpCl=  0 I1Cent=   200000004 NGrid=           0
         NMat0=    1 NMatS0=      1 NMatT0=    0 NMatD0=    1 NMtDS0=    0 NMtDT0=    0
 Petite list used in FoFCou.
 Keep R1 and R2 ints in memory in canonical form, NReq=29209894.
 Requested convergence on RMS density matrix=1.00D-08 within1024 cycles.
 Requested convergence on MAX density matrix=1.00D-06.
 Requested convergence on             energy=1.00D-06.
 No special actions if energy rises.
 Integral accuracy reduced to 1.0D-05 until final iterations.
 Initial convergence to 1.0D-05 achieved.  Increase integral accuracy.
 SCF Done:  E(UB3LYP) =  -164.097200203     A.U. after    9 cycles
            NFock=  9  Conv=0.45D-08     -V/T= 2.0100
 <Sx>= 0.0000 <Sy>= 0.0000 <Sz>= 0.0000 <S**2>=-0.0000 S=-0.0000
 <L.S>= 0.000000000000E+00
 Annihilation of the first spin contaminant:
 S**2 before annihilation    -0.0000,   after     0.0000
 Calling FoFJK, ICntrl=      2127 FMM=F ISym2X=0 I1Cent= 0 IOpClX= 1 NMat=1 NMatS=1 NMatT=0.
 ***** Axes restored to original set *****
 -------------------------------------------------------------------
 Center     Atomic                   Forces (Hartrees/Bohr)
 Number     Number              X              Y              Z
 -------------------------------------------------------------------
      1        7          -0.001139711    0.000370097    0.000182292
      2        5          -0.000215797    0.001472209    0.000462795
      3        7           0.000194734    0.000504421   -0.000576877
      4        5           0.000592036   -0.002327873   -0.000008047
      5        1           0.000118264   -0.001054994   -0.000535529
      6        1           0.000001015   -0.000046252   -0.000040664
      7        1           0.000189387   -0.000183193   -0.000157890
      8        1           0.000209456   -0.000020585   -0.000135225
      9        1          -0.000013917   -0.000054710    0.000047054
     10        1          -0.000219408    0.000915193    0.000680679
     11        1          -0.000188599   -0.000023353   -0.000160875
     12        1           0.000472542    0.000449040    0.000242286
 -------------------------------------------------------------------
 Cartesian Forces:  Max     0.002327873 RMS     0.000618389

 GradGradGradGradGradGradGradGradGradGradGradGradGradGradGradGradGradGrad
 Berny optimization.
 Using GEDIIS/GDIIS optimizer.
 FormGI is forming the generalized inverse of G from B-inverse, IUseBI=4.
 Internal  Forces:  Max     0.000881729 RMS     0.000277888
 Search for a local minimum.
 Step number   2 out of a maximum of   71
 All quantities printed in internal units (Hartrees-Bohrs-Radians)
 Mixed Optimization -- En-DIIS/RFO-DIIS
 Swapping is turned off.
 Update second derivatives using D2CorX and points    1    2
 DE= -2.03D-04 DEPred=-1.27D-04 R= 1.59D+00
 TightC=F SS=  1.41D+00  RLast= 1.01D-01 DXNew= 5.0454D-01 3.0360D-01
 Trust test= 1.59D+00 RLast= 1.01D-01 DXMaxT set to 3.04D-01
 ITU=  1  0
     Eigenvalues ---    0.00443   0.01684   0.01857   0.02465   0.03319
     Eigenvalues ---    0.03337   0.03886   0.04339   0.06411   0.08397
     Eigenvalues ---    0.10365   0.11769   0.12669   0.13754   0.15004
     Eigenvalues ---    0.15999   0.16060   0.16204   0.16751   0.17815
     Eigenvalues ---    0.21393   0.23848   0.24857   0.24922   0.24990
     Eigenvalues ---    0.38431   0.45527   0.45567   0.46338   0.61661
 En-DIIS/RFO-DIIS/Sim-DIIS IScMMF=       -3 using points:     2    1
 RFO step:  Lambda=-4.83188351D-04.
 DidBck=F Rises=F RFO-DIIS coefs:    3.00000   -2.00000
 Iteration  1 RMS(Cart)=  0.03476277 RMS(Int)=  0.00169885
 Iteration  2 RMS(Cart)=  0.00174518 RMS(Int)=  0.00003229
 Iteration  3 RMS(Cart)=  0.00000402 RMS(Int)=  0.00003206
 Iteration  4 RMS(Cart)=  0.00000000 RMS(Int)=  0.00003206
 Variable       Old X    -DE/DX   Delta X   Delta X   Delta X     New X
                                 (Linear)    (Quad)   (Total)
    R1        2.96149   0.00053   0.00494   0.00320   0.00812   2.96960
    R2        3.01043  -0.00088  -0.01583  -0.00359  -0.01943   2.99100
    R3        1.91308   0.00005  -0.00028   0.00039   0.00011   1.91319
    R4        1.91389  -0.00002   0.00040  -0.00028   0.00012   1.91401
    R5        3.70184   0.00020   0.00351   0.00489   0.00840   3.71023
    R6        2.26283   0.00002   0.00017   0.00009   0.00027   2.26309
    R7        2.25967   0.00000   0.00054  -0.00021   0.00032   2.25999
    R8        2.47645  -0.00040  -0.00378  -0.00427  -0.00800   2.46845
    R9        2.74119   0.00018  -0.00599   0.00382  -0.00217   2.73903
   R10        1.90572   0.00017  -0.01340   0.00686  -0.00654   1.89918
   R11        1.90260  -0.00020   0.01276  -0.00668   0.00608   1.90868
   R12        2.26246  -0.00014   0.00081  -0.00173  -0.00092   2.26154
   R13        2.62660   0.00069   0.00401   0.01112   0.01512   2.64172
    A1        2.03920  -0.00001  -0.00071  -0.00300  -0.00374   2.03546
    A2        2.03496  -0.00009  -0.00270   0.00149  -0.00124   2.03372
    A3        2.03514   0.00014   0.00147   0.00468   0.00621   2.04135
    A4        2.01460  -0.00016   0.00094  -0.00240  -0.00149   2.01311
    A5        1.93830  -0.00001  -0.00165  -0.00168  -0.00336   1.93494
    A6        1.97082  -0.00015   0.00019  -0.00050  -0.00032   1.97050
    A7        2.00013   0.00024   0.00062  -0.00503  -0.00438   1.99575
    A8        1.69417  -0.00020  -0.00552  -0.00028  -0.00578   1.68839
    A9        2.01051  -0.00012   0.00070  -0.00142  -0.00076   2.00975
   A10        2.15195   0.00026   0.00036   0.00395   0.00424   2.15620
   A11        2.08072  -0.00005   0.00046   0.00063   0.00105   2.08177
   A12        1.85183   0.00014  -0.00305   0.00360   0.00056   1.85238
   A13        1.80380  -0.00000   0.00624   0.00315   0.00936   1.81316
   A14        2.14053   0.00004  -0.00553   0.00303  -0.00253   2.13800
   A15        2.09121  -0.00004  -0.00038  -0.00038  -0.00078   2.09043
   A16        1.97221  -0.00000   0.00084  -0.00039   0.00042   1.97263
   A17        2.08595  -0.00039  -0.02024   0.00348  -0.01677   2.06919
   A18        1.94255   0.00029   0.01439   0.00452   0.01895   1.96150
   A19        1.61802   0.00000   0.00048  -0.00294  -0.00246   1.61556
   A20        2.08945  -0.00034  -0.00607  -0.00302  -0.00910   2.08035
   A21        2.06918   0.00017   0.00073   0.00155   0.00220   2.07137
   A22        2.06676   0.00011   0.00557  -0.00234   0.00326   2.07002
   A23        1.87103   0.00009   0.00544  -0.00042   0.00499   1.87602
   A24        1.78999  -0.00011  -0.00578  -0.00511  -0.01082   1.77917
    D1        2.47480  -0.00009  -0.00289  -0.00429  -0.00718   2.46761
    D2        0.01504  -0.00012  -0.00466   0.00149  -0.00315   0.01189
    D3       -1.87376  -0.00008  -0.00903  -0.00053  -0.00953  -1.88329
    D4        0.12356   0.00005   0.00396   0.00029   0.00424   0.12780
    D5       -2.33620   0.00003   0.00220   0.00607   0.00828  -2.32792
    D6        2.05818   0.00006  -0.00217   0.00405   0.00190   2.06008
    D7       -2.45157  -0.00005   0.00751  -0.00883  -0.00127  -2.45284
    D8        0.05943   0.00002   0.01026  -0.00137   0.00887   0.06830
    D9        1.88505  -0.00005   0.00636  -0.00745  -0.00111   1.88394
   D10       -0.12882  -0.00009   0.00760  -0.00895  -0.00132  -0.13014
   D11        2.38218  -0.00002   0.01035  -0.00150   0.00882   2.39101
   D12       -2.07539  -0.00009   0.00644  -0.00757  -0.00116  -2.07654
   D13       -0.09041  -0.00003   0.01966  -0.00735   0.01230  -0.07811
   D14       -2.86788   0.00012   0.01774   0.00466   0.02242  -2.84546
   D15        2.74790   0.00029   0.02530   0.00435   0.02965   2.77755
   D16       -0.02957   0.00044   0.02338   0.01636   0.03977   0.01020
   D17       -0.77885   0.00053   0.07832   0.04513   0.12344  -0.65541
   D18        0.25939   0.00054   0.07234   0.04573   0.11814   0.37753
   D19        3.03736   0.00040   0.07326   0.03454   0.10781  -3.13802
   D20        1.02614   0.00041   0.07332   0.04280   0.11606   1.14220
   D21        1.91620   0.00053   0.06490   0.05103   0.11593   2.03213
   D22        2.95445   0.00054   0.05892   0.05164   0.11062   3.06507
   D23       -0.55077   0.00040   0.05984   0.04044   0.10029  -0.45048
   D24       -2.56199   0.00041   0.05990   0.04871   0.10854  -2.45344
         Item               Value     Threshold  Converged?
 Maximum Force            0.000882     0.000450     NO 
 RMS     Force            0.000278     0.000300     YES
 Maximum Displacement     0.186571     0.001800     NO 
 RMS     Displacement     0.034671     0.001200     NO 
 Predicted change in Energy=-2.666709D-04
 GradGradGradGradGradGradGradGradGradGradGradGradGradGradGradGradGradGrad

                          Input orientation:                          
 ---------------------------------------------------------------------
 Center     Atomic      Atomic             Coordinates (Angstroms)
 Number     Number       Type             X           Y           Z
 ---------------------------------------------------------------------
      1          7           0        0.884682   -0.697338   -0.126038
      2          5           0        1.230145    0.834997   -0.080776
      3          7           0       -1.612173    0.044320   -0.248092
      4          5           0       -0.401686   -0.061679    0.542058
      5          1           0       -1.599824    0.271226   -1.227068
      6          1           0        1.143028    1.364195   -1.151547
      7          1           0        2.146097    1.112966    0.636183
      8          1           0        1.448885   -1.306902    0.452835
      9          1           0        0.741706   -1.101849   -1.043531
     10          1           0       -2.438037   -0.467167    0.028475
     11          1           0       -0.497261   -0.339550    1.702177
     12          1           0        0.177477    1.209503    0.595925
 ---------------------------------------------------------------------
                    Distance matrix (angstroms):
                    1          2          3          4          5
     1  N    0.000000
     2  B    1.571447   0.000000
     3  N    2.607534   2.954985   0.000000
     4  B    1.582769   1.963371   1.449431   0.000000
     5  H    2.884987   3.104924   1.005004   2.162445   0.000000
     6  H    2.316966   1.197577   3.185817   2.699548   2.953560
     7  H    2.334384   1.195936   4.006063   2.807107   4.267570
     8  H    1.012416   2.218179   3.418651   2.232298   3.821935
     9  H    1.012850   2.217396   2.736269   2.214361   2.720621
    10  H    3.334263   3.893986   1.010030   2.138904   1.680540
    11  H    2.319514   2.746345   2.279021   1.196755   3.188914
    12  H    2.158104   1.306250   2.296271   1.397940   2.713386
                    6          7          8          9         10
     6  H    0.000000
     7  H    2.065247   0.000000
     8  H    3.130870   2.524971   0.000000
     9  H    2.500820   3.114348   1.667712   0.000000
    10  H    4.191702   4.886759   3.999175   3.415081   0.000000
    11  H    3.706351   3.198982   2.506812   3.107258   2.565965
    12  H    2.002468   1.971397   2.822985   2.889380   3.158185
                   11         12
    11  H    0.000000
    12  H    2.019562   0.000000
 Stoichiometry    B2H8N2
 Framework group  C1[X(B2H8N2)]
 Deg. of freedom    30
 Full point group                 C1      NOp   1
 Largest Abelian subgroup         C1      NOp   1
 Largest concise Abelian subgroup C1      NOp   1
                         Standard orientation:                         
 ---------------------------------------------------------------------
 Center     Atomic      Atomic             Coordinates (Angstroms)
 Number     Number       Type             X           Y           Z
 ---------------------------------------------------------------------
      1          7           0        0.816790   -0.742375   -0.237324
      2          5           0        1.283039    0.743825   -0.029318
      3          7           0       -1.616865    0.190385   -0.156582
      4          5           0       -0.389999   -0.098521    0.559088
      5          1           0       -1.623018    0.531619   -1.101862
      6          1           0        1.198148    1.402681   -1.025759
      7          1           0        2.243945    0.865533    0.672188
      8          1           0        1.352415   -1.456884    0.239718
      9          1           0        0.608560   -1.022209   -1.188217
     10          1           0       -2.469549   -0.288393    0.096128
     11          1           0       -0.464047   -0.505827    1.681960
     12          1           0        0.288863    1.110888    0.734336
 ---------------------------------------------------------------------
 Rotational constants (GHZ):          14.6883856           5.2773556           4.7741254
 Standard basis: 6-31G(d,p) (6D, 7F)
 There are   100 symmetry adapted cartesian basis functions of A   symmetry.
 There are   100 symmetry adapted basis functions of A   symmetry.
   100 basis functions,   168 primitive gaussians,   100 cartesian basis functions
    16 alpha electrons       16 beta electrons
       nuclear repulsion energy       118.1341769650 Hartrees.
 NAtoms=   12 NActive=   12 NUniq=   12 SFac= 1.00D+00 NAtFMM=   60 NAOKFM=F Big=F
 Integral buffers will be    131072 words long.
 Raffenetti 2 integral format.
 Two-electron integral symmetry is turned on.
 One-electron integrals computed using PRISM.
 NBasis=   100 RedAO= T EigKep=  3.81D-03  NBF=   100
 NBsUse=   100 1.00D-06 EigRej= -1.00D+00 NBFU=   100
 Initial guess from the checkpoint file:  "/scratch/1311826/Gau-2498.chk"
 B after Tr=     0.000000   -0.000000   -0.000000
         Rot=    0.999947    0.009414   -0.000411    0.004051 Ang=   1.18 deg.
 Initial guess <Sx>= 0.0000 <Sy>= 0.0000 <Sz>= 0.0000 <S**2>=-0.0000 S=-0.0000
 ExpMin= 1.27D-01 ExpMax= 4.17D+03 ExpMxC= 6.27D+02 IAcc=2 IRadAn=         4 AccDes= 0.00D+00
 Harris functional with IExCor=  402 and IRadAn=       4 diagonalized for initial guess.
 HarFok:  IExCor=  402 AccDes= 0.00D+00 IRadAn=         4 IDoV= 1 UseB2=F ITyADJ=14
 ICtDFT=  3500011 ScaDFX=  1.000000  1.000000  1.000000  1.000000
 FoFCou: FMM=F IPFlag=           0 FMFlag=      100000 FMFlg1=           0
         NFxFlg=           0 DoJE=T BraDBF=F KetDBF=T FulRan=T
         wScrn=  0.000000 ICntrl=       500 IOpCl=  0 I1Cent=   200000004 NGrid=           0
         NMat0=    1 NMatS0=      1 NMatT0=    0 NMatD0=    1 NMtDS0=    0 NMtDT0=    0
 Petite list used in FoFCou.
 Keep R1 and R2 ints in memory in canonical form, NReq=29209894.
 Requested convergence on RMS density matrix=1.00D-08 within1024 cycles.
 Requested convergence on MAX density matrix=1.00D-06.
 Requested convergence on             energy=1.00D-06.
 No special actions if energy rises.
 Integral accuracy reduced to 1.0D-05 until final iterations.
 Initial convergence to 1.0D-05 achieved.  Increase integral accuracy.
 SCF Done:  E(UB3LYP) =  -164.097576991     A.U. after   11 cycles
            NFock= 11  Conv=0.28D-08     -V/T= 2.0099
 <Sx>= 0.0000 <Sy>= 0.0000 <Sz>= 0.0000 <S**2>=-0.0000 S=-0.0000
 <L.S>= 0.000000000000E+00
 Annihilation of the first spin contaminant:
 S**2 before annihilation    -0.0000,   after     0.0000
 Calling FoFJK, ICntrl=      2127 FMM=F ISym2X=0 I1Cent= 0 IOpClX= 1 NMat=1 NMatS=1 NMatT=0.
 ***** Axes restored to original set *****
 -------------------------------------------------------------------
 Center     Atomic                   Forces (Hartrees/Bohr)
 Number     Number              X              Y              Z
 -------------------------------------------------------------------
      1        7           0.000565193    0.000001047    0.000175290
      2        5          -0.000654488    0.001773550    0.000942425
      3        7          -0.003048020   -0.002429117    0.003939338
      4        5          -0.000621823   -0.002792904   -0.000879297
      5        1          -0.000375782    0.000288593   -0.003424587
      6        1           0.000152166   -0.000317745   -0.000139036
      7        1           0.000243331   -0.000217451   -0.000183957
      8        1           0.000126990    0.000041473   -0.000005969
      9        1           0.000012755   -0.000206680    0.000116039
     10        1           0.002380619    0.002533192   -0.000379945
     11        1          -0.000242291   -0.000010654   -0.000306786
     12        1           0.001461351    0.001336698    0.000146484
 -------------------------------------------------------------------
 Cartesian Forces:  Max     0.003939338 RMS     0.001425146

 GradGradGradGradGradGradGradGradGradGradGradGradGradGradGradGradGradGrad
 Berny optimization.
 Using GEDIIS/GDIIS optimizer.
 FormGI is forming the generalized inverse of G from B-inverse, IUseBI=4.
 Internal  Forces:  Max     0.003395854 RMS     0.000727629
 Search for a local minimum.
 Step number   3 out of a maximum of   71
 All quantities printed in internal units (Hartrees-Bohrs-Radians)
 Mixed Optimization -- En-DIIS/RFO-DIIS
 Swapping is turned off.
 Update second derivatives using D2CorX and points    1    2    3
 DE= -3.77D-04 DEPred=-2.67D-04 R= 1.41D+00
 TightC=F SS=  1.41D+00  RLast= 3.28D-01 DXNew= 5.1059D-01 9.8286D-01
 Trust test= 1.41D+00 RLast= 3.28D-01 DXMaxT set to 5.11D-01
 ITU=  1  1  0
     Eigenvalues ---    0.00199   0.01674   0.01910   0.02476   0.03331
     Eigenvalues ---    0.03379   0.03896   0.04440   0.06372   0.08457
     Eigenvalues ---    0.10340   0.11830   0.12658   0.13822   0.14992
     Eigenvalues ---    0.16000   0.16098   0.16139   0.16857   0.18358
     Eigenvalues ---    0.22428   0.23829   0.24857   0.24945   0.24990
     Eigenvalues ---    0.38430   0.45529   0.45571   0.46363   0.81125
 En-DIIS/RFO-DIIS/Sim-DIIS IScMMF=       -3 using points:     3    2    1
 RFO step:  Lambda=-4.01458020D-04.
 DidBck=F Rises=F RFO-DIIS coefs:    1.48689    1.25992   -1.74681
 Iteration  1 RMS(Cart)=  0.03457921 RMS(Int)=  0.00172770
 Iteration  2 RMS(Cart)=  0.00178182 RMS(Int)=  0.00007367
 Iteration  3 RMS(Cart)=  0.00000422 RMS(Int)=  0.00007356
 Iteration  4 RMS(Cart)=  0.00000000 RMS(Int)=  0.00007356
 Variable       Old X    -DE/DX   Delta X   Delta X   Delta X     New X
                                 (Linear)    (Quad)   (Total)
    R1        2.96960   0.00031   0.00826   0.00054   0.00876   2.97837
    R2        2.99100   0.00027  -0.02329   0.00459  -0.01871   2.97229
    R3        1.91319   0.00004  -0.00019   0.00019   0.00001   1.91320
    R4        1.91401  -0.00002   0.00041  -0.00019   0.00022   1.91423
    R5        3.71023   0.00066   0.00716   0.00308   0.01022   3.72046
    R6        2.26309  -0.00003   0.00028  -0.00011   0.00017   2.26326
    R7        2.25999   0.00003   0.00063  -0.00011   0.00052   2.26051
    R8        2.46845  -0.00063  -0.00719  -0.00237  -0.00945   2.45901
    R9        2.73903   0.00083  -0.00629   0.00374  -0.00254   2.73648
   R10        1.89918   0.00340  -0.01488   0.01001  -0.00487   1.89431
   R11        1.90868  -0.00333   0.01410  -0.00955   0.00455   1.91323
   R12        2.26154  -0.00028   0.00026  -0.00124  -0.00098   2.26056
   R13        2.64172   0.00165   0.01087   0.00905   0.01989   2.66161
    A1        2.03546  -0.00002  -0.00244  -0.00133  -0.00382   2.03164
    A2        2.03372  -0.00001  -0.00296   0.00223  -0.00081   2.03291
    A3        2.04135   0.00024   0.00430   0.00050   0.00492   2.04627
    A4        2.01311  -0.00027   0.00010  -0.00075  -0.00072   2.01240
    A5        1.93494  -0.00002  -0.00308  -0.00042  -0.00354   1.93140
    A6        1.97050   0.00011   0.00001  -0.00153  -0.00155   1.96895
    A7        1.99575  -0.00034  -0.00159  -0.00365  -0.00518   1.99058
    A8        1.68839   0.00034  -0.00764   0.00287  -0.00472   1.68368
    A9        2.00975  -0.00009   0.00024  -0.00115  -0.00102   2.00872
   A10        2.15620   0.00021   0.00238   0.00296   0.00519   2.16139
   A11        2.08177   0.00001   0.00091   0.00014   0.00095   2.08272
   A12        1.85238  -0.00002  -0.00239   0.00450   0.00212   1.85450
   A13        1.81316   0.00001   0.01001  -0.00035   0.00959   1.82275
   A14        2.13800   0.00058  -0.00606   0.00577  -0.00034   2.13766
   A15        2.09043  -0.00014  -0.00071   0.00065  -0.00011   2.09032
   A16        1.97263  -0.00029   0.00094  -0.00028   0.00061   1.97325
   A17        2.06919   0.00097  -0.02584   0.01231  -0.01354   2.05565
   A18        1.96150  -0.00022   0.02180  -0.00343   0.01845   1.97995
   A19        1.61556  -0.00047  -0.00078  -0.00297  -0.00375   1.61181
   A20        2.08035   0.00056  -0.00973   0.00215  -0.00760   2.07275
   A21        2.07137  -0.00008   0.00171   0.00018   0.00170   2.07308
   A22        2.07002  -0.00065   0.00645  -0.00519   0.00132   2.07134
   A23        1.87602   0.00030   0.00718  -0.00164   0.00545   1.88147
   A24        1.77917   0.00001  -0.01031  -0.00090  -0.01107   1.76810
    D1        2.46761  -0.00012  -0.00602  -0.00037  -0.00640   2.46122
    D2        0.01189   0.00015  -0.00560   0.00574   0.00020   0.01209
    D3       -1.88329   0.00006  -0.01253   0.00566  -0.00679  -1.89008
    D4        0.12780  -0.00004   0.00553  -0.00076   0.00473   0.13253
    D5       -2.32792   0.00023   0.00595   0.00535   0.01133  -2.31659
    D6        2.06008   0.00014  -0.00097   0.00527   0.00434   2.06442
    D7       -2.45284   0.00009   0.00594  -0.00732  -0.00127  -2.45411
    D8        0.06830  -0.00002   0.01328  -0.00407   0.00918   0.07748
    D9        1.88394  -0.00024   0.00501  -0.00685  -0.00190   1.88203
   D10       -0.13014   0.00001   0.00599  -0.00827  -0.00219  -0.13232
   D11        2.39101  -0.00010   0.01333  -0.00501   0.00826   2.39927
   D12       -2.07654  -0.00032   0.00506  -0.00780  -0.00282  -2.07936
   D13       -0.07811  -0.00071   0.02315  -0.01555   0.00759  -0.07053
   D14       -2.84546  -0.00008   0.02641  -0.00608   0.02036  -2.82510
   D15        2.77755  -0.00022   0.03653  -0.00793   0.02861   2.80616
   D16        0.01020   0.00041   0.03978   0.00155   0.04139   0.05160
   D17       -0.65541   0.00006   0.12851  -0.00664   0.12186  -0.53355
   D18        0.37753   0.00048   0.12070  -0.00295   0.11790   0.49543
   D19       -3.13802  -0.00003   0.11648  -0.01127   0.10522  -3.03280
   D20        1.14220   0.00012   0.12055  -0.00578   0.11461   1.25681
   D21        2.03213   0.00037   0.11312   0.00932   0.12244   2.15457
   D22        3.06507   0.00079   0.10532   0.01301   0.11848  -3.09963
   D23       -0.45048   0.00028   0.10110   0.00469   0.10580  -0.34467
   D24       -2.45344   0.00042   0.10516   0.01018   0.11519  -2.33825
         Item               Value     Threshold  Converged?
 Maximum Force            0.003396     0.000450     NO 
 RMS     Force            0.000728     0.000300     NO 
 Maximum Displacement     0.189805     0.001800     NO 
 RMS     Displacement     0.034491     0.001200     NO 
 Predicted change in Energy=-1.775856D-04
 GradGradGradGradGradGradGradGradGradGradGradGradGradGradGradGradGradGrad

                          Input orientation:                          
 ---------------------------------------------------------------------
 Center     Atomic      Atomic             Coordinates (Angstroms)
 Number     Number       Type             X           Y           Z
 ---------------------------------------------------------------------
      1          7           0        0.877693   -0.689559   -0.132576
      2          5           0        1.230559    0.845316   -0.071856
      3          7           0       -1.602520    0.036006   -0.259363
      4          5           0       -0.400966   -0.069853    0.541893
      5          1           0       -1.577199    0.170785   -1.252363
      6          1           0        1.139902    1.385122   -1.137122
      7          1           0        2.156413    1.104930    0.639703
      8          1           0        1.447961   -1.305377    0.433601
      9          1           0        0.732987   -1.083564   -1.054489
     10          1           0       -2.459622   -0.397921    0.060198
     11          1           0       -0.506637   -0.342469    1.701850
     12          1           0        0.184469    1.209304    0.611124
 ---------------------------------------------------------------------
                    Distance matrix (angstroms):
                    1          2          3          4          5
     1  N    0.000000
     2  B    1.576084   0.000000
     3  N    2.587272   2.952369   0.000000
     4  B    1.572868   1.968780   1.448085   0.000000
     5  H    2.832069   3.119631   1.002426   2.158886   0.000000
     6  H    2.319950   1.197665   3.179852   2.703760   2.978344
     7  H    2.334894   1.196211   4.010050   2.816002   4.288637
     8  H    1.012420   2.219962   3.403666   2.226383   3.764721
     9  H    1.012968   2.221199   2.709291   2.204971   2.636192
    10  H    3.355576   3.896219   1.012440   2.139563   1.680748
    11  H    2.324212   2.752221   2.278280   1.196238   3.183852
    12  H    2.153911   1.301252   2.308182   1.408463   2.766691
                    6          7          8          9         10
     6  H    0.000000
     7  H    2.066134   0.000000
     8  H    3.130632   2.520707   0.000000
     9  H    2.503362   3.112224   1.665774   0.000000
    10  H    4.191586   4.888985   4.028910   3.450419   0.000000
    11  H    3.708831   3.211690   2.521131   3.111800   2.551912
    12  H    2.000033   1.974912   2.819849   2.886587   3.142914
                   11         12
    11  H    0.000000
    12  H    2.018739   0.000000
 Stoichiometry    B2H8N2
 Framework group  C1[X(B2H8N2)]
 Deg. of freedom    30
 Full point group                 C1      NOp   1
 Largest Abelian subgroup         C1      NOp   1
 Largest concise Abelian subgroup C1      NOp   1
                         Standard orientation:                         
 ---------------------------------------------------------------------
 Center     Atomic      Atomic             Coordinates (Angstroms)
 Number     Number       Type             X           Y           Z
 ---------------------------------------------------------------------
      1          7           0        0.802146   -0.747581   -0.222155
      2          5           0        1.290738    0.739985   -0.041971
      3          7           0       -1.607705    0.192402   -0.167129
      4          5           0       -0.389619   -0.087751    0.564124
      5          1           0       -1.609594    0.415926   -1.144313
      6          1           0        1.206195    1.381792   -1.049610
      7          1           0        2.263028    0.853904    0.645485
      8          1           0        1.337811   -1.458894    0.259602
      9          1           0        0.587304   -1.040990   -1.167597
     10          1           0       -2.486453   -0.195696    0.152587
     11          1           0       -0.473280   -0.456736    1.698953
     12          1           0        0.308305    1.125776    0.719113
 ---------------------------------------------------------------------
 Rotational constants (GHZ):          14.6976728           5.2925451           4.8018217
 Standard basis: 6-31G(d,p) (6D, 7F)
 There are   100 symmetry adapted cartesian basis functions of A   symmetry.
 There are   100 symmetry adapted basis functions of A   symmetry.
   100 basis functions,   168 primitive gaussians,   100 cartesian basis functions
    16 alpha electrons       16 beta electrons
       nuclear repulsion energy       118.2671600791 Hartrees.
 NAtoms=   12 NActive=   12 NUniq=   12 SFac= 1.00D+00 NAtFMM=   60 NAOKFM=F Big=F
 Integral buffers will be    131072 words long.
 Raffenetti 2 integral format.
 Two-electron integral symmetry is turned on.
 One-electron integrals computed using PRISM.
 NBasis=   100 RedAO= T EigKep=  3.75D-03  NBF=   100
 NBsUse=   100 1.00D-06 EigRej= -1.00D+00 NBFU=   100
 Initial guess from the checkpoint file:  "/scratch/1311826/Gau-2498.chk"
 B after Tr=    -0.000000    0.000000    0.000000
         Rot=    0.999914    0.012658   -0.000334    0.003500 Ang=   1.51 deg.
 Initial guess <Sx>= 0.0000 <Sy>= 0.0000 <Sz>= 0.0000 <S**2>=-0.0000 S=-0.0000
 ExpMin= 1.27D-01 ExpMax= 4.17D+03 ExpMxC= 6.27D+02 IAcc=2 IRadAn=         4 AccDes= 0.00D+00
 Harris functional with IExCor=  402 and IRadAn=       4 diagonalized for initial guess.
 HarFok:  IExCor=  402 AccDes= 0.00D+00 IRadAn=         4 IDoV= 1 UseB2=F ITyADJ=14
 ICtDFT=  3500011 ScaDFX=  1.000000  1.000000  1.000000  1.000000
 FoFCou: FMM=F IPFlag=           0 FMFlag=      100000 FMFlg1=           0
         NFxFlg=           0 DoJE=T BraDBF=F KetDBF=T FulRan=T
         wScrn=  0.000000 ICntrl=       500 IOpCl=  0 I1Cent=   200000004 NGrid=           0
         NMat0=    1 NMatS0=      1 NMatT0=    0 NMatD0=    1 NMtDS0=    0 NMtDT0=    0
 Petite list used in FoFCou.
 Keep R1 and R2 ints in memory in canonical form, NReq=29209894.
 Requested convergence on RMS density matrix=1.00D-08 within1024 cycles.
 Requested convergence on MAX density matrix=1.00D-06.
 Requested convergence on             energy=1.00D-06.
 No special actions if energy rises.
 Integral accuracy reduced to 1.0D-05 until final iterations.
 Initial convergence to 1.0D-05 achieved.  Increase integral accuracy.
 SCF Done:  E(UB3LYP) =  -164.097773132     A.U. after   11 cycles
            NFock= 11  Conv=0.29D-08     -V/T= 2.0099
 <Sx>= 0.0000 <Sy>= 0.0000 <Sz>= 0.0000 <S**2>= 0.0000 S= 0.0000
 <L.S>= 0.000000000000E+00
 Annihilation of the first spin contaminant:
 S**2 before annihilation    -0.0000,   after    -0.0000
 Calling FoFJK, ICntrl=      2127 FMM=F ISym2X=0 I1Cent= 0 IOpClX= 1 NMat=1 NMatS=1 NMatT=0.
 ***** Axes restored to original set *****
 -------------------------------------------------------------------
 Center     Atomic                   Forces (Hartrees/Bohr)
 Number     Number              X              Y              Z
 -------------------------------------------------------------------
      1        7           0.001792027   -0.000289408   -0.000072522
      2        5          -0.000774918    0.001959172    0.001331690
      3        7          -0.005658025   -0.004138961    0.007593665
      4        5          -0.002024421   -0.003076680   -0.001453603
      5        1          -0.000684470    0.000961922   -0.005673703
      6        1           0.000249224   -0.000514396   -0.000207156
      7        1           0.000275351   -0.000247236   -0.000196197
      8        1           0.000001562    0.000086920    0.000170489
      9        1           0.000133241   -0.000287889    0.000161425
     10        1           0.004476930    0.003368285   -0.001467473
     11        1          -0.000027063    0.000053601   -0.000274332
     12        1           0.002240563    0.002124671    0.000087717
 -------------------------------------------------------------------
 Cartesian Forces:  Max     0.007593665 RMS     0.002412085

 GradGradGradGradGradGradGradGradGradGradGradGradGradGradGradGradGradGrad
 Berny optimization.
 Using GEDIIS/GDIIS optimizer.
 FormGI is forming the generalized inverse of G from B-inverse, IUseBI=4.
 Internal  Forces:  Max     0.005731572 RMS     0.001224247
 Search for a local minimum.
 Step number   4 out of a maximum of   71
 All quantities printed in internal units (Hartrees-Bohrs-Radians)
 Mixed Optimization -- RFO/linear search
 Update second derivatives using D2CorX and points    3    4
 DE= -1.96D-04 DEPred=-1.78D-04 R= 1.10D+00
 TightC=F SS=  1.41D+00  RLast= 3.35D-01 DXNew= 8.5870D-01 1.0037D+00
 Trust test= 1.10D+00 RLast= 3.35D-01 DXMaxT set to 8.59D-01
 ITU=  1  1  1  0
 Use linear search instead of GDIIS.
     Eigenvalues ---    0.00141   0.01658   0.01953   0.02478   0.03353
     Eigenvalues ---    0.03421   0.03895   0.04483   0.06336   0.08499
     Eigenvalues ---    0.10331   0.11889   0.12649   0.13853   0.14995
[...]
 RMS     Force            0.000018     0.000300     YES
 Maximum Displacement     0.007408     0.001800     NO 
 RMS     Displacement     0.001721     0.001200     NO 
 Predicted change in Energy=-2.885943D-07
                           ----------------------------
                           ! Non-Optimized Parameters !
                           ! (Angstroms and Degrees)  !
 --------------------------                            --------------------------
 ! Name  Definition              Value          Derivative Info.                !
 --------------------------------------------------------------------------------
 ! R1    R(1,2)                  1.6994         -DE/DX =    0.0                 !
 ! R2    R(1,4)                  1.494          -DE/DX =    0.0                 !
 ! R3    R(1,8)                  1.0159         -DE/DX =    0.0                 !
 ! R4    R(1,9)                  1.017          -DE/DX =    0.0                 !
 ! R5    R(2,4)                  2.564          -DE/DX =    0.0                 !
 ! R6    R(2,6)                  1.2111         -DE/DX =    0.0                 !
 ! R7    R(2,7)                  1.2087         -DE/DX =    0.0                 !
 ! R8    R(2,12)                 1.211          -DE/DX =    0.0                 !
 ! R9    R(3,4)                  1.3883         -DE/DX =    0.0                 !
 ! R10   R(3,5)                  1.0104         -DE/DX =    0.0                 !
 ! R11   R(3,10)                 1.0078         -DE/DX =    0.0                 !
 ! R12   R(4,11)                 1.1896         -DE/DX =    0.0                 !
 ! R13   R(4,12)                 2.6494         -DE/DX =    0.0                 !
 ! A1    A(2,1,8)              107.5545         -DE/DX =    0.0                 !
 ! A2    A(2,1,9)              106.8998         -DE/DX =    0.0                 !
 ! A3    A(4,1,8)              112.4904         -DE/DX =    0.0                 !
 ! A4    A(4,1,9)              114.9983         -DE/DX =    0.0                 !
 ! A5    A(8,1,9)              107.8687         -DE/DX =    0.0                 !
 ! A6    A(1,2,6)              104.2516         -DE/DX =    0.0                 !
 ! A7    A(1,2,7)              104.895          -DE/DX =    0.0                 !
 ! A8    A(1,2,12)             105.3102         -DE/DX =    0.0                 !
 ! A9    A(4,2,6)               93.6352         -DE/DX =    0.0                 !
 ! A10   A(4,2,7)              137.1948         -DE/DX =    0.0                 !
 ! A11   A(6,2,7)              114.23           -DE/DX =    0.0                 !
 ! A12   A(6,2,12)             113.2805         -DE/DX =    0.0                 !
 ! A13   A(7,2,12)             113.5768         -DE/DX =    0.0                 !
 ! A14   A(4,3,5)              123.0222         -DE/DX =    0.0                 !
 ! A15   A(4,3,10)             121.6814         -DE/DX =    0.0                 !
 ! A16   A(5,3,10)             113.731          -DE/DX =    0.0                 !
 ! A17   A(1,4,3)              119.8113         -DE/DX =    0.0                 !
 ! A18   A(1,4,11)             118.4591         -DE/DX =    0.0                 !
 ! A19   A(1,4,12)              61.2281         -DE/DX =    0.0                 !
 ! A20   A(2,4,3)              107.7482         -DE/DX =    0.0                 !
 ! A21   A(2,4,11)             117.0692         -DE/DX =    0.0                 !
 ! A22   A(3,4,11)             121.7258         -DE/DX =    0.0                 !
 ! A23   A(3,4,12)             113.7465         -DE/DX =    0.0                 !
 ! A24   A(11,4,12)             94.182          -DE/DX =    0.0                 !
 ! D1    D(8,1,2,6)            164.2025         -DE/DX =    0.0                 !
 ! D2    D(8,1,2,7)             43.8236         -DE/DX =    0.0                 !
 ! D3    D(8,1,2,12)           -76.3042         -DE/DX =    0.0                 !
 ! D4    D(9,1,2,6)             48.5787         -DE/DX =    0.0                 !
 ! D5    D(9,1,2,7)            -71.8002         -DE/DX =    0.0                 !
 ! D6    D(9,1,2,12)           168.072          -DE/DX =    0.0                 !
 ! D7    D(8,1,4,3)           -160.5891         -DE/DX =    0.0                 !
 ! D8    D(8,1,4,11)            18.7171         -DE/DX =    0.0                 !
 ! D9    D(8,1,4,12)            97.0042         -DE/DX =    0.0                 !
 ! D10   D(9,1,4,3)            -36.5703         -DE/DX =    0.0                 !
 ! D11   D(9,1,4,11)           142.7359         -DE/DX =    0.0                 !
 ! D12   D(9,1,4,12)          -138.977          -DE/DX =    0.0                 !
 ! D13   D(6,2,4,3)             -5.3043         -DE/DX =    0.0                 !
 ! D14   D(6,2,4,11)          -146.8981         -DE/DX =    0.0                 !
 ! D15   D(7,2,4,3)           -137.6638         -DE/DX =    0.0                 !
 ! D16   D(7,2,4,11)            80.7424         -DE/DX =    0.0                 !
 ! D17   D(5,3,4,1)             -9.6937         -DE/DX =    0.0                 !
 ! D18   D(5,3,4,2)             31.5923         -DE/DX =    0.0                 !
 ! D19   D(5,3,4,11)           171.0234         -DE/DX =    0.0                 !
 ! D20   D(5,3,4,12)            59.5758         -DE/DX =    0.0                 !
 ! D21   D(10,3,4,1)          -174.5249         -DE/DX =    0.0                 !
 ! D22   D(10,3,4,2)          -133.2389         -DE/DX =    0.0                 !
 ! D23   D(10,3,4,11)            6.1922         -DE/DX =    0.0                 !
 ! D24   D(10,3,4,12)         -105.2554         -DE/DX =    0.0                 !
 --------------------------------------------------------------------------------
 GradGradGradGradGradGradGradGradGradGradGradGradGradGradGradGradGradGrad


 ----------------------------------------------------------------------

 Electric dipole moment (input orientation):
 (Debye = 10**-18 statcoulomb cm , SI units = C m)
                  (au)            (Debye)         (10**-30 SI)
   Tot        0.196419D+01      0.499247D+01      0.166531D+02
   x         -0.108017D+01     -0.274552D+01     -0.915808D+01
   y         -0.159480D+01     -0.405357D+01     -0.135213D+02
   z         -0.384561D+00     -0.977456D+00     -0.326044D+01

 Dipole polarizability, Alpha (input orientation).
 (esu units = cm**3 , SI units = C**2 m**2 J**-1)
 Alpha(0;0):
               (au)            (10**-24 esu)      (10**-40 SI)
   iso        0.411509D+02      0.609793D+01      0.678486D+01
   aniso      0.151922D+02      0.225126D+01      0.250486D+01
   xx         0.492617D+02      0.729983D+01      0.812216D+01
   yx         0.199241D+01      0.295245D+00      0.328505D+00
   yy         0.332207D+02      0.492279D+01      0.547735D+01
   zx         0.163818D+01      0.242754D+00      0.270100D+00
   zy        -0.243478D+01     -0.360797D+00     -0.401441D+00
   zz         0.409702D+02      0.607116D+01      0.675508D+01

 ----------------------------------------------------------------------

 Dipole orientation:
     7          1.43052701          1.09978573          0.04469906
     5          1.12181634         -0.01474049         -2.95126743
     7         -1.75695546         -1.55158241          2.28623977
     5         -1.08285993          0.78027442          1.29071323
     1         -0.74839883         -3.14376678          1.98078583
     1          1.09135571         -2.29014140         -2.70686866
     1          2.94846943          0.78428335         -4.06531298
     1          1.96327781          2.94031020         -0.07390161
     1          2.86984238          0.12038835          0.85896780
     1         -3.49381118         -1.86967548          2.99978143
     1         -2.44831398          2.56113462          1.42289945
     1         -0.86078946          0.83890140         -3.71127153

 Electric dipole moment (dipole orientation):
 (Debye = 10**-18 statcoulomb cm , SI units = C m)
                  (au)            (Debye)         (10**-30 SI)
   Tot        0.196419D+01      0.499247D+01      0.166531D+02
   x          0.000000D+00      0.000000D+00      0.000000D+00
   y          0.000000D+00      0.000000D+00      0.000000D+00
   z          0.196419D+01      0.499247D+01      0.166531D+02

 Dipole polarizability, Alpha (dipole orientation).
 (esu units = cm**3 , SI units = C**2 m**2 J**-1)
 Alpha(0;0):
               (au)            (10**-24 esu)      (10**-40 SI)
   iso        0.411509D+02      0.609793D+01      0.678486D+01
   aniso      0.151922D+02      0.225126D+01      0.250486D+01
   xx         0.410599D+02      0.608444D+01      0.676986D+01
   yx         0.863657D+00      0.127981D+00      0.142398D+00
   yy         0.426658D+02      0.632242D+01      0.703465D+01
   zx        -0.756485D+01     -0.112100D+01     -0.124728D+01
   zy        -0.409833D+01     -0.607310D+00     -0.675723D+00
   zz         0.397269D+02      0.588692D+01      0.655008D+01

 ----------------------------------------------------------------------
 1\1\GINC-MNODE009\Freq\UB3LYP\6-31G(d,p)\B2H8N2\MARIAHARRIS\03-Jul-202
 0\0\\#N Geom=AllCheck Guess=TCheck SCRF=Check GenChk UB3LYP/6-31G(d,p)
  Freq\\something title\\0,1\N,0.7698550438,-0.5630053592,0.0516010295\
 B,1.2994435036,1.0498702814,-0.0270279186\N,-1.6665106542,-0.266727036
 8,-0.3922227318\B,-0.6495344142,-0.5258645294,0.5166518246\H,-1.493504
 3985,0.0432739559,-1.3381737313\H,0.7666664676,1.4911513029,-1.0211301
 752\H,2.5036831297,0.9778690989,-0.0998769848\H,1.3786701447,-1.054330
 6373,0.6996491105\H,0.9083908975,-0.9647192355,-0.8724260008\H,-2.6236
 678024,-0.1545815443,-0.097375335\H,-0.8759329205,-0.7356969018,1.6654
 818778\H,0.9054810028,1.5654806051,0.9954490352\\Version=EM64L-G16RevA
 .03\State=1-A\HF=-164.1063397\S2=0.\S2-1=0.\S2A=0.\RMSD=2.874e-09\RMSF
 =3.991e-05\ZeroPoint=0.1007095\Thermal=0.1068157\Dipole=-1.0801724,-1.
 5947989,-0.3845607\DipoleDeriv=-0.8416105,-0.1982591,0.0616482,-0.4648
 377,-0.8183726,0.0373696,0.1853764,0.0171232,-0.2744782,0.3889197,0.06
 88907,-0.0070679,0.2888155,0.7546535,-0.0250565,-0.0176882,-0.0356329,
 0.3846691,-0.8675579,-0.0424544,-0.2321821,-0.0461238,-0.617089,-0.070
 6975,-0.4340617,-0.0541254,-0.594093,1.4814982,0.1217688,0.1058239,0.0
 570134,0.4604195,-0.0747897,0.128173,-0.0919174,0.7834087,0.201003,0.0
 257643,0.0330992,0.0553855,0.2881537,0.0747694,0.0646654,0.0520268,0.1
 661891,-0.1966431,0.0243403,-0.1317722,-0.0364427,-0.2024485,0.0289557
 ,-0.0920878,0.1113976,-0.3164064,-0.4293156,-0.0359016,0.0172667,0.025
 2696,-0.1915617,0.0034808,0.0472603,0.0249025,-0.1048168,0.1981112,0.0
 127527,-0.0065803,0.0404391,0.1745461,0.028291,0.0031607,0.008819,0.17
 66258,0.1889648,0.0081328,-0.0066016,0.0329911,0.1743316,-0.0300539,-0
 .0048364,-0.0101367,0.1317876,0.1922065,0.0189667,0.0302964,0.0655334,
 0.2866674,0.0308068,-0.00358,0.0260816,0.1843084,-0.1538301,-0.0196539
 ,0.0309293,-0.0032153,-0.1095309,0.0412673,0.036179,0.0465016,-0.23051
 77,-0.1617464,0.0156525,0.1051404,-0.0148281,-0.199769,-0.0443429,0.08
 74392,-0.0950398,-0.3066765\Polar=49.2617015,1.9924142,33.2206576,1.63
 8182,-2.4347817,40.9702097\Quadrupole=1.3967497,-2.5005469,1.1037972,-
 5.2619527,1.2533629,-0.0707252\PG=C01 [X(B2H8N2)]\NImag=0\\0.53357480,
 -0.17093543,0.32353020,0.05352542,0.02575964,0.70905955,-0.04158079,-0
 .00772457,-0.00102079,0.37088491,0.02233769,-0.03359857,-0.01123961,-0
 .06259094,0.19523519,0.00016893,0.00222625,-0.04964355,0.00432201,0.00
 970934,0.38651401,-0.03627446,-0.00300794,-0.01986296,-0.00239843,0.00
 819585,-0.00078522,0.78360836,0.00365687,0.00821318,0.00097891,-0.0010
 0780,-0.00410926,0.00057442,-0.09851614,0.11538748,0.00235150,-0.00805
 475,0.01392842,-0.00142152,0.00285313,-0.00172793,-0.01310200,-0.18973
 834,0.72164866,-0.20234333,0.04055570,0.04883388,-0.00840559,-0.028518
 87,0.00359440,-0.24903864,0.05691939,-0.14514408,0.52789941,-0.0039947
 6,-0.04731101,0.00706636,-0.00990272,0.00866112,0.00704328,0.04999911,
 -0.05204143,0.05377934,-0.06225991,0.14728988,0.04534464,-0.00194999,-
 0.09837942,0.00301855,0.00810145,0.00288462,-0.14704843,0.05841309,-0.
 23263579,0.06682101,-0.09470564,0.56216012,0.00019628,-0.00186752,0.00
 098519,-0.00080469,0.00096416,-0.00136672,-0.07648668,-0.00901559,0.05
 637664,0.01089799,0.00610453,-0.01989908,0.06985898,-0.00141238,-0.003
 74123,-0.00097068,-0.00037544,0.00165516,-0.00106949,-0.01326715,-0.05
 680156,0.13621142,-0.00421267,0.00020851,0.00197416,0.01420662,0.05479
 926,0.00120108,-0.00051016,0.00158339,0.00006141,-0.00026732,-0.000230
 11,0.06946948,0.12307418,-0.39885921,0.00449907,0.00490859,-0.01554355
 ,-0.06989085,-0.13117006,0.41863674,0.00347706,-0.00263957,0.00454645,
 -0.06867750,0.02790373,-0.06237074,0.00012458,-0.00104098,0.00081029,-
 0.00161980,-0.00018483,0.00002370,0.00060965,0.00051768,0.00034061,0.0
 6883977,0.00548846,-0.01714395,0.01914162,0.02490379,-0.05094571,0.043
 41178,-0.00101113,0.00056551,-0.00043787,0.00404944,-0.00122794,-0.000
 45491,-0.00011001,-0.00046554,0.00012494,-0.02845377,0.06261478,0.0018
 7928,0.00233296,-0.00042647,-0.05995384,0.04909531,-0.14771765,0.00063
 428,-0.00103916,0.00125920,-0.00417955,-0.00031021,-0.00195997,0.00099
 112,0.00082733,0.00020519,0.06743618,-0.05684463,0.15756012,-0.0081458
 4,-0.00521849,0.00124060,-0.20331633,0.01255959,0.00955643,-0.00132752
 ,-0.00071687,-0.00037606,0.00276166,0.00032771,-0.00091149,0.00028844,
 0.00033537,0.00038192,-0.00687037,0.00105780,-0.00038532,0.22211903,-0
 .02897512,-0.01062001,0.00436016,0.01870376,-0.03174208,-0.00096341,-0
 .00186792,0.00142879,-0.00075580,0.00394624,-0.00510305,-0.00099618,-0
 .00031970,-0.00063307,-0.00019112,0.00810583,0.00216861,-0.00063889,-0
 .00957320,0.03689394,0.00118518,0.00192086,0.00160580,0.01017320,-0.00
 024187,-0.03613585,0.00055388,-0.00027268,0.00120602,-0.00171967,-0.00
 149719,-0.00128555,0.00049890,0.00038758,0.00004472,-0.01686256,0.0003
 5991,0.00270069,-0.01136678,0.00006502,0.03134571,-0.18618103,0.118219
 79,-0.14691807,0.00529007,-0.00341889,0.00566143,-0.00444604,-0.000314
 14,0.00428673,-0.01462787,0.01421605,-0.02252915,0.00040336,0.00012196
 ,0.00044470,-0.00027250,-0.00234092,0.00015983,-0.00029309,-0.00007017
 ,0.00018671,0.19583850,0.12963784,-0.12609264,0.12000637,0.01225238,-0
 .01109635,0.01427813,-0.00062126,0.00087159,0.00058115,-0.00473692,-0.
 00079660,-0.00067964,0.00012260,-0.00038130,-0.00010349,-0.00238591,-0
 .00493119,-0.00071510,-0.00022038,0.00285638,-0.00060761,-0.12158178,0
 .13132532,-0.13971511,0.10434900,-0.21245751,-0.00101307,0.00216549,-0
 .00015985,0.00273299,0.00066581,-0.00032483,0.00486442,-0.00549117,0.0
 0879898,0.00010100,-0.00015036,-0.00020514,0.00065161,0.00056785,0.000
 97484,0.00026996,-0.00117739,0.00022397,0.15374653,-0.11994960,0.22399
 226,-0.06155468,0.03493938,0.04806825,0.00216281,-0.00292623,-0.006596
 78,0.00209484,-0.00174326,-0.00232864,0.00115770,0.01033032,0.02834008
 ,-0.00103081,0.00175617,-0.00062533,0.00002399,0.00072269,0.00002241,-
 0.00052730,0.00068325,-0.00004403,0.00351969,-0.01180734,-0.02268081,0
 .05806948,0.03678543,-0.09190350,-0.14772539,0.00260705,-0.01165091,-0
 .02043709,0.00118708,-0.00070946,0.00056346,-0.00599496,-0.00027744,0.
 00377084,0.00108399,0.00007524,-0.00008983,0.00082915,0.00244772,0.001
 12076,0.00027412,0.00144438,0.00081957,-0.00357984,0.00712755,0.019602
 18,-0.02899766,0.09810265,0.03797924,-0.12755123,-0.36228569,-0.000440
 07,0.00002195,0.00213160,-0.00272401,0.00010850,0.00122802,0.00259485,
 -0.00266072,-0.00796720,0.00009064,-0.00020053,0.00006237,0.00037749,0
 .00107993,0.00026854,-0.00000979,0.00046288,-0.00034859,0.00581006,-0.
 01223977,-0.02054752,-0.04499974,0.13985596,0.38586576,0.00001164,0.00
 271431,-0.00336992,0.00034064,-0.00001752,0.00010931,-0.42389055,0.047
 41863,0.11743941,-0.01526469,0.00037686,0.01045526,-0.00148896,0.00133
 690,-0.00354431,-0.00005174,-0.00003778,-0.00005586,0.00015763,0.00005
 887,-0.00007697,-0.00082537,-0.00031516,0.00049163,0.00016112,-0.00005
 083,0.00002195,0.43931224,0.00161386,0.00561753,0.00172841,0.00073012,
 -0.00036799,0.00016958,0.05906952,-0.02091656,-0.00115730,0.00282454,-
 0.00200297,-0.00479054,-0.01197344,-0.00047724,0.00221117,-0.00017198,
 0.00001093,-0.00021224,0.00005899,0.00045865,-0.00026559,-0.00013138,0
 .00082453,0.00022077,-0.00094288,-0.00023362,0.00073682,-0.05032191,0.
 02081421,-0.00284656,0.00117408,-0.00245164,0.00006659,0.00087611,-0.0
 0013703,0.10812984,0.00251621,-0.09448390,-0.01726624,0.00089451,0.010
 41206,0.03360086,-0.00663055,-0.00578329,0.00019289,-0.00007612,0.0002
 0564,-0.00005642,-0.00013000,0.00001044,-0.00097789,0.00025263,0.00048
 067,-0.00014556,0.00026892,-0.00019991,-0.12152140,0.00188464,0.092318
 96,-0.00505332,-0.00103101,0.02232857,0.00050032,0.00193372,-0.0000758
 8,0.00772768,0.00501369,-0.01838870,-0.05071299,-0.00741186,0.03490780
 ,-0.00251923,0.00086564,-0.00237568,0.00017325,-0.00028143,0.00031564,
 -0.00013768,-0.00035426,-0.00011742,0.00202484,-0.00022165,0.00036545,
 -0.00379608,-0.00147050,0.00123475,0.00144441,-0.00077555,0.00076486,0
 .05039456,0.00346638,0.00884662,-0.00030283,0.00053185,-0.00193511,-0.
 00116696,0.00057909,0.00762065,0.00586417,-0.00571916,-0.04656888,0.03
 333550,0.00075579,0.00595720,0.00192993,-0.00001306,0.00037494,0.00022
 975,-0.00006375,0.00070111,0.00024639,-0.00140066,-0.00068208,-0.00046
 443,-0.00048308,0.00075829,-0.00017111,-0.00108002,-0.00365123,-0.0008
 8720,0.00414310,0.02854562,0.00270355,0.00250892,-0.00386089,-0.000180
 20,-0.00220422,-0.00063282,0.00251378,0.00411803,-0.01208719,0.0350063
 4,0.03350257,-0.22326840,-0.00202883,0.00079575,0.00012387,0.00009906,
 0.00031779,0.00023087,0.00027469,0.00046047,0.00015866,0.00023271,-0.0
 0035199,-0.00037930,0.00044939,0.00063017,0.00070532,0.00016282,-0.000
 50048,-0.00033027,-0.03889236,-0.03953314,0.23857703,0.00387368,-0.004
 00467,-0.00835662,-0.05399541,0.02357771,0.04778283,0.00030685,-0.0006
 5378,-0.00050356,-0.00070386,0.00239951,0.00147710,0.00007568,0.000127
 31,0.00003790,0.00424362,-0.00398713,-0.00686418,-0.00470863,0.0096624
 2,0.01758956,-0.00043056,-0.00012242,0.00018541,-0.00028076,-0.0026730
 4,0.00006464,0.00009364,0.00002012,0.00005900,-0.00004577,-0.00071649,
 -0.00034096,0.05157151,0.00233115,-0.01579661,-0.01880296,0.02187254,-
 0.06010547,-0.05377584,-0.00073910,0.00049108,0.00029141,0.00314716,-0
 .00083019,-0.00201813,0.00004858,-0.00019542,0.00008318,-0.00246629,0.
 00653184,0.00615411,0.00117913,0.00214637,-0.00091438,0.00027997,0.000
 97480,-0.00033815,-0.00153137,-0.00518090,0.00055732,-0.00008234,-0.00
 007624,-0.00014323,-0.00040990,0.00003287,0.00025612,-0.02362955,0.072
 00789,-0.00377715,-0.00220557,0.00332801,0.04638772,-0.05886977,-0.155
 14545,-0.00051164,0.00060104,0.00084853,0.00209556,-0.00252971,-0.0032
 1589,0.00054113,-0.00000457,-0.00003497,0.00475503,-0.00719030,-0.0133
 0100,0.00138228,-0.00049575,0.00047399,-0.00010359,-0.00047107,-0.0003
 9658,0.00054075,0.00162044,0.00108731,-0.00011192,-0.00002523,-0.00004
 171,-0.00006703,0.00091993,0.00076313,-0.05113113,0.06865056,0.1656346
 4\\0.00007127,-0.00006702,0.00005478,0.00005364,0.00002014,-0.00006878
 ,-0.00000650,-0.00006207,-0.00006420,0.00000659,0.00010061,0.00008998,
 -0.00000913,0.00002206,0.00000224,-0.00000474,0.00004500,0.00001497,-0
 .00002263,-0.00003244,-0.00000166,0.00000047,0.00000675,-0.00000984,-0
 .00001416,0.00001936,-0.00000932,-0.00000415,0.00000847,0.00001102,-0.
 00002906,-0.00004497,-0.00001329,-0.00004159,-0.00001588,-0.00000590\\
 \@


 Ideas are like rabbits. You get a couple and learn
 how to handle them, and pretty soon you have a dozen.
                                    -- John Steinbeck
 Job cpu time:       0 days  0 hours 11 minutes  8.9 seconds.
 Elapsed time:       0 days  0 hours  2 minutes 47.4 seconds.
 File lengths (MBytes):  RWF=     29 Int=      0 D2E=      0 Chk=      2 Scr=      1
 Normal termination of Gaussian 16 at Fri Jul  3 17:20:19 2020.
