      -----------------------------------------------------------      
     |                   =====================                   |     
     |                           x T B                           |     
     |                   =====================                   |     
     |                         S. Grimme                         |     
     |          Mulliken Center for Theoretical Chemistry        |     
     |                    University of Bonn                     |     
     |                 Version 6.1.4 (SAW190525)                 |     
      -----------------------------------------------------------      

   This program is distributed in the hope that it will be useful,
   but WITHOUT ANY WARRANTY; without even the implied warranty of
   MERCHANTABILITY or FITNESS FOR A PARTICULAR PURPOSE.
   
   FOR NON-COMMERCIAL, ACADEMIA USE ONLY.
   
   Cite this work as:
   S. Grimme, C. Bannwarth, P. Shushkov, J. Comput. Theory Chem., 2017,
   13, 1989-2009. DOI: 10.1021/acs.jctc.7b00118
   C. Bannwarth, S. Ehlert and S. Grimme., J. Comput. Theory Chem., 2019,
   just accepted. DOI: 10.1021/acs.jctc.8b01176
   
   for sTDA-xTB:
   S. Grimme and C. Bannwarth, J. Chem. Phys., 2016, 145, 054103.
   DOI: 10.1063/1.4959605
   
   in the mass-spec context:
   V. Asgeirsson, C. Bauer and S. Grimme, Chem. Sci., 2017, 8, 4879.
   DOI: 10.1039/c7sc00601b
   
   for metadynamics refer to:
   S. Grimme, J. Chem. Theory Comput. Article ASAP, 2019,
   DOI: 10.1021/acs.jctc.9b00143
   
   with help from (in alphabetical order)
   C. Bannwarth, F. Bohle, G. Brandenburg, E. Caldeweyher, M. Checinski,
   S. Dohm, S. Ehlert, S. Ehrlich, F. März, H. Neugebauer, J. Pisarek,
   P. Pracht, P. Shushkov, and S. Spicher.
   
 * started run on 2020/07/03 at 17:34:20.910     

           -------------------------------------------------
          |                Calculation Setup                |
           -------------------------------------------------

          program call               : /opt/xtb/6.1/xtb-190527/bin/xtb 6r.xyz --path --input path.inp --gfn2 --chrg 0
          hostname                   : mnode006
          coordinate file            : 6r.xyz
          omp threads                :                     1
          number of atoms            :                    12
          number of electrons        :                    24
          charge                     :                     0
          spin                       :                   0.0
          first test random number   :      0.25269313365171


molecular fragmentation (1/2 indicates fragments):
112221111222
# atoms in fragment 1/2:     6     6
 fragment masses (1/2) :       28.85       28.85
CMA distance (Bohr)    :   7.111
constraining FC (au)   :  0.0500

########################################################################
# WARNING! Please study the warnings concerning your input carefully
#  - XTBPATH is not set, using XTBHOME instead
########################################################################

           ------------------------------------------------- 
          |                 G F N 2 - x T B                 |
          | Geometry, Frequencies, Noncovalent interactions |
          |            JCTC 2018 parametrisation            |
           ------------------------------------------------- 
             k(s)              :                1.8500
             k(p)              :                2.2300
             k(d)              :                2.2300
             k(f)              :                2.0000
             kEN (H0ij)        :               -2.0000
             D4 a1             :                0.5200
             D4 a2             :                5.0000
             D4 s6             :                1.0000
             D4 s8             :                2.7000
             D4 s9             :                5.0000
             alphaj            :                2.0000

  Z AO/shell   Hii/eV     exponent
  1     Wed Apr 25 08:07:45 CEST 2018   EN: 2.200 GM2: 0.406  GM3: 0.0800  RAES: 1.40
     1s    -10.707211    1.230000
  5     Mon Apr 23 23:47:44 CEST 2018   EN: 2.040 GM2: 0.514  GM3: 0.0946  RAES: 5.00
     2s     -9.224376    1.479444
     2p     -7.419002    1.479805
  7     Wed Apr 25 08:07:45 CEST 2018   EN: 3.040 GM2: 0.461  GM3:-0.0640  RAES: 1.90
     2s    -16.686243    2.339881
     2p    -12.523956    2.014332


            Z     q(EN)     CN     RAES       Cart. coordinates
     1  N   5.0   -0.64    2.99    1.92     3.80233     0.85034     0.97769
     2  B   3.0   -0.14    2.94    5.00     6.06040     0.78094    -0.37834
     3  N   5.0   -0.63    2.99    1.92     0.45824    -4.35918     0.06186
     4  B   3.0   -0.13    2.94    5.00    -1.85525    -3.12741    -0.04453
     5  H   1.0    0.28    1.00    1.43     2.11499    -3.43315     0.29096
     6  H   1.0    0.12    0.97    1.43     8.00373     0.53373     0.74536
     7  H   1.0    0.12    0.97    1.43     5.99038     0.94630    -2.62866
     8  H   1.0    0.26    1.00    1.43     2.09263     1.12271     0.16966
     9  H   1.0    0.26    1.00    1.43     3.72675     0.78995     2.88395
    10  H   1.0    0.26    1.00    1.43     0.63920    -6.24999    -0.11130
    11  H   1.0    0.12    0.97    1.43    -3.75178    -4.31764    -0.33404
    12  H   1.0    0.12    0.97    1.43    -1.90694    -0.87046     0.16324

           ------------------------------------------------- 
          |        Self-Consistent Charge Iterations        |
           ------------------------------------------------- 

          ...................................................
          :                      SETUP                      :
          :.................................................:
          :  # basis functions                  24          :
          :  # atomic orbitals                  24          :
          :  # shells                           16          :
          :  # electrons                        24          :
          :  max. iterations                   250          :
          :  Hamiltonian                  GFN2-xTB          :
          :  restarted?                      false          :
          :  GBSA solvation                  false          :
          :  PC potential                    false          :
          :  electronic temp.          300.0000000     K    :
          :  accuracy                    1.0000000          :
          :  -> integral cutoff          0.2500000E+02      :
          :  -> integral neglect         0.1000000E-07      :
          :  -> SCF convergence          0.1000000E-05 Eh   :
          :  -> wf. convergence          0.1000000E-03 e    :
          :  Broyden damping             0.4000000          :
          ...................................................

 iter      E             dE          RMSdq      gap      omega  full diag
   1    -12.4020786 -0.124021E+02  0.974E+00    6.16       0.0  T
   2    -12.5637709 -0.161692E+00  0.650E+00    5.67       1.0  T
   3    -12.5724011 -0.863015E-02  0.288E+00    5.80       1.0  T
   4    -12.5815103 -0.910920E-02  0.101E+00    5.73       1.0  T
   5    -12.5870752 -0.556492E-02  0.344E-01    5.97       1.0  T
   6    -12.5876952 -0.620015E-03  0.123E-01    5.89       1.0  T
   7    -12.5878395 -0.144251E-03  0.193E-02    5.91       1.5  T
   8    -12.5878395 -0.684008E-07  0.792E-03    5.91       3.6  T
   9    -12.5878393  0.295035E-06  0.693E-03    5.91       4.2  T
  10    -12.5878399 -0.693425E-06  0.602E-04    5.91      47.9  T
  11    -12.5878399 -0.131914E-08  0.695E-05    5.91     415.3  T

   *** convergence criteria satisfied after 11 iterations ***

         #    Occupation            Energy/Eh            Energy/eV
      -------------------------------------------------------------
         1        2.0000           -0.5995809             -16.3154
       ...           ...                  ...                  ...
         6        2.0000           -0.5084170             -13.8347
         7        2.0000           -0.4446560             -12.0997
         8        2.0000           -0.4421726             -12.0321
         9        2.0000           -0.4175525             -11.3622
        10        2.0000           -0.4170905             -11.3496
        11        2.0000           -0.4060025             -11.0479
        12        2.0000           -0.4027809             -10.9602 (HOMO)
        13                         -0.1854841              -5.0473 (LUMO)
        14                         -0.1836537              -4.9975
        15                          0.0340793               0.9273
        16                          0.0718599               1.9554
        17                          0.1710430               4.6543
       ...                                ...                  ...
        24                          0.4617633              12.5652
      -------------------------------------------------------------
                  HL-Gap            0.2172968 Eh            5.9129 eV
             Fermi-level           -0.2941325 Eh           -8.0038 eV

 SCC (total)                   0 d,  0 h,  0 min,  0.234 sec
 SCC setup                      ...        0 min,  0.001 sec (  0.225%)
 Dispersion                     ...        0 min,  0.000 sec (  0.049%)
 integral evaluation            ...        0 min,  0.002 sec (  0.870%)
 zeroth order Hamiltonian       ...        0 min,  0.105 sec ( 45.025%)
 iterations                     ...        0 min,  0.005 sec (  2.081%)
 molecular gradient             ...        0 min,  0.003 sec (  1.460%)
 printout                       ...        0 min,  0.118 sec ( 50.277%)

         :::::::::::::::::::::::::::::::::::::::::::::::::::::
         ::                     SUMMARY                     ::
         :::::::::::::::::::::::::::::::::::::::::::::::::::::
         :: total energy              -12.430967881149 Eh   ::
         :: gradient norm               0.028203632356 Eh/α ::
         :: HOMO-LUMO gap               5.912946352473 eV   ::
         ::.................................................::
         :: SCC energy                -12.587839946287 Eh   ::
         :: -> isotropic ES             0.058684790225 Eh   ::
         :: -> anisotropic ES           0.011490922816 Eh   ::
         :: -> anisotropic XC           0.005965457740 Eh   ::
         :: -> dispersion              -0.004448867355 Eh   ::
         :: repulsion energy            0.156868055235 Eh   ::
         :: add. restraining            0.000000000000 Eh   ::
         :::::::::::::::::::::::::::::::::::::::::::::::::::::

           -------------------------------------------------
          |                Property Printout                |
           -------------------------------------------------

    * Orbital Energies and Occupations

         #    Occupation            Energy/Eh            Energy/eV
      -------------------------------------------------------------
         1        2.0000           -0.5995809             -16.3154
         2        2.0000           -0.5961264             -16.2214
         3        2.0000           -0.5272274             -14.3466
         4        2.0000           -0.5210131             -14.1775
         5        2.0000           -0.5100638             -13.8795
         6        2.0000           -0.5084170             -13.8347
         7        2.0000           -0.4446560             -12.0997
         8        2.0000           -0.4421726             -12.0321
         9        2.0000           -0.4175525             -11.3622
        10        2.0000           -0.4170905             -11.3496
        11        2.0000           -0.4060025             -11.0479
        12        2.0000           -0.4027809             -10.9602 (HOMO)
        13                         -0.1854841              -5.0473 (LUMO)
        14                         -0.1836537              -4.9975
        15                          0.0340793               0.9273
        16                          0.0718599               1.9554
        17                          0.1710430               4.6543
        18                          0.1892961               5.1510
        19                          0.3050127               8.2998
        20                          0.3090911               8.4108
        21                          0.4243375              11.5468
        22                          0.4332082              11.7882
        23                          0.4499275              12.2432
        24                          0.4617633              12.5652
      -------------------------------------------------------------
                  HL-Gap            0.2172968 Eh            5.9129 eV
             Fermi-level           -0.2941325 Eh           -8.0038 eV

   #   Z        covCN         q      C6AA      α(0)
   1   7 N      2.561    -0.320    28.265     7.896
   2   5 B      2.698     0.233    17.967     7.113
   3   7 N      2.561    -0.317    28.174     7.883
   4   5 B      2.696     0.235    17.955     7.112
   5   1 H      0.860     0.167     1.292     1.780
   6   1 H      0.929    -0.119     6.281     3.919
   7   1 H      0.929    -0.118     6.243     3.907
   8   1 H      0.860     0.169     1.277     1.770
   9   1 H      0.860     0.158     1.347     1.818
  10   1 H      0.860     0.159     1.343     1.816
  11   1 H      0.929    -0.117     6.193     3.891
  12   1 H      0.927    -0.130     6.726     4.056

 Mol. C6AA /au·bohr⁶  :       1135.769774
 Mol. C8AA /au·bohr⁸  :      23733.142198
 Mol. α(0) /au        :         52.960906


Wiberg/Mayer (AO) data.
largest (>0.10) Wiberg bond orders for each atom
          total WBO             WBO to atom ...
     1  N   3.390        B    2 1.456    H    9 0.962    H    8 0.953
     2  B   3.399        N    1 1.456    H    7 0.968    H    6 0.968
     3  N   3.395        B    4 1.471    H   10 0.962    H    5 0.951
     4  B   3.408        N    3 1.471    H   11 0.968    H   12 0.961
     5  H   0.972        N    3 0.951
     6  H   0.986        B    2 0.968
     7  H   0.986        B    2 0.968
     8  H   0.971        N    1 0.953
     9  H   0.975        N    1 0.962
    10  H   0.975        N    3 0.962
    11  H   0.986        B    4 0.968
    12  H   0.983        B    4 0.961

molecular dipole:
                 x           y           z       tot (Debye)
 q only:        0.039      -0.250       0.324
   full:        0.046      -0.318       0.453       1.412
molecular quadrupole (traceless):
                xx          xy          yy          xz          yz          zz
 q only:       -6.765      -3.312       4.945       1.770       0.323       1.820
  q+dip:       -8.613      -4.149       6.459       3.275       0.572       2.155
   full:       -9.596      -4.244       6.966       2.796       0.532       2.630


           -------------------------------------------------
          | TOTAL ENERGY              -12.430967881149 Eh   |
          | GRADIENT NORM               0.028203632356 Eh/α |
          | HOMO-LUMO GAP               5.912946352473 eV   |
           -------------------------------------------------
           ------------------------------------------------- 
          |                     P A T H                     |
          |            RMSD-Push/Pull Path Finder           |
           ------------------------------------------------- 
 reading reference structures from 6p.xyz ...
initial k push/pull              :    0.008   -0.020
Gaussian width (1/Bohr)          :    0.600
# random initial distor incr +/- :    0.005
# optlevel                       :   2
# of runs                        :   3
approx # structures opt on path  : 100
# of 'an'-optimization steps     :   3
 
  k_push/k_pull internally multiplied by Natoms!
  user info on effect of push/pull parameters
  ang. ed-prod G should be small, Govlp large
   width   k_push  k_pull  |Gbias| ang. ed-prod G  Govlp
   1.000   0.008  -0.020    0.000000   359.4    -0.00000
   0.900   0.012  -0.030    0.000003   356.2    -0.00000
   0.800   0.018  -0.045    0.000019   336.2    -0.00000
   0.700   0.027  -0.068    0.000119   240.4    -0.00000
   0.600   0.041  -0.101    0.000717   158.1     0.00000
   0.500   0.061  -0.152    0.004200   152.5     0.00000
   0.400   0.091  -0.228    0.023624   152.3     0.00001
   0.300   0.137  -0.342    0.124585   152.3     0.00018
   0.200   0.205  -0.513    0.584006   152.3     0.00386
input reactant/product RMSD (Bohr)  :    3.931

 
 optimizing inital path with Vbias ...
actual k push/pull :   0.008  -0.020

          ...................................................
          :                      SETUP                      :
          :.................................................:
          :   optimization level         verytight          :
          :   max. optcycles                   240          :
          :   ANC micro-cycles                  20          :
          :   degrees of freedom                30          :
          :.................................................:
          :   RF solver                   davidson          :
          :   input Hessian                  false          :
          :   write xtbopt.log                true          :
          :   linear?                        false          :
          :   energy convergence         0.1000000E-06 Eh   :
          :   grad. convergence          0.2000000E-03 Eh/α :
          :   maximium RF displ.         1.0000000          :
          :   Hlow (freq-cutoff)         0.1000000E-01      :
          :   Hmax (freq-cutoff)         5.0000000          :
          :   S6 in model hess.         20.0000000          :
          ...................................................

generating ANC from model Hessian ...
Using Lindh-Hessian (1995)
 Shifting diagonal of input Hessian by   9.949712682370906E-003
 Lowest  eigenvalues of input Hessian
   -0.000000   -0.000000    0.000000    0.000000    0.000000    0.000000
    0.010000    0.010214    0.010359    0.010390    0.010825    0.011554
    0.024932    0.025546    0.031133    0.031745    0.056941    0.057734
 Highest eigenvalues
    0.870859    0.883128    1.519467    1.532249    1.749840    1.770677
 

........................................................................
.............................. CYCLE    1 ..............................
........................................................................
   1    -12.5883566 -0.125884E+02  0.373E-02    5.91       0.0  T
   2    -12.5883578 -0.119446E-05  0.225E-02    5.91       1.3  T
   3    -12.5883577  0.893573E-07  0.102E-02    5.91       2.8  T
   4    -12.5883580 -0.346893E-06  0.266E-03    5.91      10.9  T
   5    -12.5883581 -0.378982E-07  0.545E-04    5.91      53.0  T
   6    -12.5883581 -0.227409E-10  0.142E-04    5.91     203.8  T
   7    -12.5883581 -0.147095E-09  0.528E-05    5.91     546.2  T
   8    -12.5883581 -0.343547E-11  0.560E-06    5.91    5150.5  T
   9    -12.5883581 -0.142109E-13  0.230E-06    5.91   12534.2  T
     SCC iter.                  ...        0 min,  0.004 sec
     gradient                   ...        0 min,  0.004 sec
 * total energy  :   -12.3349395 Eh     change       -0.1233494E+02 Eh
   gradient norm :     0.0284156 Eh/α   predicted     0.0000000E+00 (-100.00%)
   displ. norm   :     0.1018367 α      lambda       -0.2274982E-02
   maximum displ.:     0.0477761 α      in ANC's #20, #19, #22, ...

........................................................................
.............................. CYCLE    2 ..............................
........................................................................
   1    -12.6011975 -0.126012E+02  0.112E-01    6.00       0.0  T
   2    -12.6012053 -0.785506E-05  0.572E-02    6.01       1.0  T
   3    -12.6012041  0.121540E-05  0.283E-02    6.00       1.0  T
   4    -12.6012082 -0.405344E-05  0.368E-03    6.00       7.8  T
   5    -12.6012082 -0.975219E-08  0.126E-03    6.00      22.9  T
   6    -12.6012082  0.213358E-10  0.397E-04    6.00      72.6  T
   7    -12.6012082 -0.987193E-09  0.141E-04    6.00     204.2  T
   8    -12.6012082 -0.357545E-10  0.154E-05    6.00    1870.3  T
     SCC iter.                  ...        0 min,  0.007 sec
     gradient                   ...        0 min,  0.004 sec
 * total energy  :   -12.3364393 Eh     change       -0.1499772E-02 Eh
   gradient norm :     0.0090180 Eh/α   predicted    -0.1149289E-02 ( -23.37%)
   displ. norm   :     0.1292390 α      lambda       -0.4449933E-03
   maximum displ.:     0.0710346 α      in ANC's #5, #3, #6, ...

........................................................................
.............................. CYCLE    3 ..............................
........................................................................
   1    -12.6066313 -0.126066E+02  0.101E-01    6.04       0.0  T
   2    -12.6066335 -0.222060E-05  0.568E-02    6.04       1.0  T
   3    -12.6066327  0.749914E-06  0.134E-02    6.04       2.2  T
   4    -12.6066342 -0.147715E-05  0.286E-03    6.04      10.1  T
   5    -12.6066342 -0.187482E-07  0.963E-04    6.04      30.0  T
   6    -12.6066342 -0.144681E-09  0.214E-04    6.04     134.6  T
   7    -12.6066342 -0.279696E-09  0.844E-05    6.04     342.2  T
   8    -12.6066342 -0.869171E-11  0.133E-05    6.04    2163.5  T
     SCC iter.                  ...        0 min,  0.003 sec
     gradient                   ...        0 min,  0.003 sec
 * total energy  :   -12.3367560 Eh     change       -0.3166703E-03 Eh
   gradient norm :     0.0030719 Eh/α   predicted    -0.2262137E-03 ( -28.56%)
   displ. norm   :     0.4772854 α      lambda       -0.8986114E-03
   maximum displ.:     0.2722779 α      in ANC's #3, #5, #6, ...

........................................................................
.............................. CYCLE    4 ..............................
........................................................................
   1    -12.6135500 -0.126136E+02  0.315E-01    6.07       0.0  T
   2    -12.6135641 -0.140136E-04  0.179E-01    6.07       1.0  T
   3    -12.6135623  0.172165E-05  0.270E-02    6.07       1.1  T
   4    -12.6135686 -0.627388E-05  0.806E-03    6.08       3.6  T
   5    -12.6135688 -0.197101E-06  0.274E-03    6.08      10.5  T
   6    -12.6135688 -0.372045E-08  0.418E-04    6.08      69.1  T
   7    -12.6135688 -0.583748E-09  0.202E-04    6.08     143.1  T
   8    -12.6135688 -0.984119E-10  0.352E-05    6.08     819.4  T
   9    -12.6135688 -0.341061E-12  0.146E-05    6.08    1983.1  T
     SCC iter.                  ...        0 min,  0.003 sec
     gradient                   ...        0 min,  0.003 sec
 * total energy  :   -12.3381463 Eh     change       -0.1390279E-02 Eh
   gradient norm :     0.0197248 Eh/α   predicted    -0.5516682E-03 ( -60.32%)
   displ. norm   :     0.6348325 α      lambda       -0.3213305E-02
   maximum displ.:     0.3810893 α      in ANC's #3, #5, #2, ...

........................................................................
.............................. CYCLE    5 ..............................
........................................................................
   1    -12.6129554 -0.126130E+02  0.446E-01    6.06       0.0  T
   2    -12.6129844 -0.289780E-04  0.254E-01    6.06       1.0  T
   3    -12.6129787  0.560363E-05  0.420E-02    6.05       1.0  T
   4    -12.6129940 -0.152582E-04  0.108E-02    6.07       2.7  T
   5    -12.6129944 -0.369820E-06  0.379E-03    6.06       7.6  T
   6    -12.6129944 -0.588243E-08  0.690E-04    6.06      41.8  T
   7    -12.6129944 -0.265941E-08  0.294E-04    6.06      98.1  T
   8    -12.6129944 -0.121242E-09  0.479E-05    6.06     603.1  T
   9    -12.6129944 -0.532907E-12  0.192E-05    6.06    1500.6  T
     SCC iter.                  ...        0 min,  0.003 sec
     gradient                   ...        0 min,  0.003 sec
 * total energy  :   -12.3427570 Eh     change       -0.4610754E-02 Eh
   gradient norm :     0.0312153 Eh/α   predicted    -0.2254142E-02 ( -51.11%)
   displ. norm   :     0.7357993 α      lambda       -0.7401538E-02
   maximum displ.:     0.4773548 α      in ANC's #3, #5, #2, ...

........................................................................
.............................. CYCLE    6 ..............................
........................................................................
   1    -12.6059546 -0.126060E+02  0.482E-01    6.01       0.0  T
   2    -12.6059863 -0.316192E-04  0.274E-01    5.99       1.0  T
   3    -12.6059786  0.770253E-05  0.469E-02    5.96       1.0  T
   4    -12.6059977 -0.191903E-04  0.114E-02    5.97       2.5  T
   5    -12.6059980 -0.253617E-06  0.415E-03    5.97       7.0  T
   6    -12.6059980 -0.946688E-08  0.143E-03    5.97      20.2  T
   7    -12.6059980 -0.140860E-07  0.381E-04    5.97      75.7  T
   8    -12.6059980 -0.950511E-10  0.480E-05    5.97     601.0  T
   9    -12.6059980 -0.298428E-12  0.209E-05    5.97    1378.1  T
     SCC iter.                  ...        0 min,  0.003 sec
     gradient                   ...        0 min,  0.003 sec
 * total energy  :   -12.3514216 Eh     change       -0.8664609E-02 Eh
   gradient norm :     0.0363944 Eh/α   predicted    -0.5704385E-02 ( -34.16%)
   displ. norm   :     0.7621493 α      lambda       -0.1041371E-01
   maximum displ.:     0.5576792 α      in ANC's #3, #5, #2, ...

........................................................................
.............................. CYCLE    7 ..............................
........................................................................
   1    -12.5929654 -0.125930E+02  0.533E-01    5.83       0.0  T
   2    -12.5930209 -0.554651E-04  0.303E-01    5.81       1.0  T
   3    -12.5929917  0.292179E-04  0.747E-02    5.80       1.0  T
   4    -12.5930423 -0.506210E-04  0.118E-02    5.79       2.5  T
   5    -12.5930425 -0.186962E-06  0.501E-03    5.79       5.8  T
   6    -12.5930425 -0.512575E-07  0.215E-03    5.79      13.4  T
   7    -12.5930426 -0.186691E-07  0.372E-04    5.79      77.5  T
   8    -12.5930426 -0.869136E-10  0.550E-05    5.79     525.1  T
   9    -12.5930426 -0.477840E-12  0.223E-05    5.79    1295.0  T
     SCC iter.                  ...        0 min,  0.003 sec
     gradient                   ...        0 min,  0.003 sec
 * total energy  :   -12.3619100 Eh     change       -0.1048835E-01 Eh
   gradient norm :     0.0426572 Eh/α   predicted    -0.8231364E-02 ( -21.52%)
   displ. norm   :     0.8126264 α      lambda       -0.1559983E-01
   maximum displ.:     0.6219504 α      in ANC's #3, #5, #2, ...

........................................................................
.............................. CYCLE    8 ..............................
........................................................................
   1    -12.5720991 -0.125721E+02  0.585E-01    5.49       0.0  T
   2    -12.5722098 -0.110763E-03  0.336E-01    5.39       1.0  T
   3    -12.5721238  0.860676E-04  0.120E-01    5.45       1.0  T
   4    -12.5722598 -0.136086E-03  0.202E-02    5.38       1.4  T
   5    -12.5722606 -0.767615E-06  0.558E-03    5.39       5.2  T
   6    -12.5722606 -0.756174E-08  0.256E-03    5.39      11.3  T
   7    -12.5722607 -0.387266E-07  0.715E-04    5.39      40.4  T
   8    -12.5722607 -0.535499E-09  0.110E-04    5.39     262.2  T
   9    -12.5722607 -0.581579E-11  0.392E-05    5.39     736.0  T
     SCC iter.                  ...        0 min,  0.003 sec
     gradient                   ...        0 min,  0.003 sec
 * total energy  :   -12.3725195 Eh     change       -0.1060955E-01 Eh
   gradient norm :     0.0446469 Eh/α   predicted    -0.1295068E-01 (  22.07%)
   displ. norm   :     0.7516427 α      lambda       -0.9795344E-02
   maximum displ.:     0.4897664 α      in ANC's #3, #5, #2, ...

........................................................................
.............................. CYCLE    9 ..............................
........................................................................
   1    -12.5499678 -0.125500E+02  0.646E-01    5.39       0.0  T
   2    -12.5500827 -0.114990E-03  0.376E-01    5.37       1.0  T
   3    -12.5500133  0.694249E-04  0.104E-01    5.36       1.0  T
   4    -12.5501283 -0.115030E-03  0.257E-02    5.36       1.1  T
   5    -12.5501308 -0.245622E-05  0.745E-03    5.36       3.9  T
   6    -12.5501309 -0.582564E-07  0.341E-03    5.36       8.5  T
   7    -12.5501309 -0.742299E-07  0.916E-04    5.36      31.5  T
   8    -12.5501309 -0.581258E-09  0.121E-04    5.36     237.7  T
   9    -12.5501309 -0.104716E-10  0.488E-05    5.36     592.1  T
     SCC iter.                  ...        0 min,  0.003 sec
     gradient                   ...        0 min,  0.003 sec
 * total energy  :   -12.3774705 Eh     change       -0.4950977E-02 Eh
   gradient norm :     0.0694668 Eh/α   predicted    -0.7664729E-02 (  54.81%)
   displ. norm   :     0.3517672 α      lambda       -0.9022566E-02
   maximum displ.:     0.1867430 α      in ANC's #3, #4, #15, ...

........................................................................
.............................. CYCLE   10 ..............................
........................................................................
   1    -12.5635870 -0.125636E+02  0.282E-01    5.43       0.0  T
   2    -12.5636419 -0.549441E-04  0.164E-01    5.40       1.0  T
   3    -12.5636322  0.973705E-05  0.764E-02    5.38       1.0  T
   4    -12.5636632 -0.310078E-04  0.165E-02    5.38       1.7  T
   5    -12.5636639 -0.707556E-06  0.449E-03    5.38       6.4  T
   6    -12.5636639 -0.379952E-08  0.175E-03    5.38      16.5  T
   7    -12.5636639 -0.224595E-07  0.542E-04    5.38      53.3  T
   8    -12.5636639 -0.479160E-09  0.564E-05    5.38     511.5  T
   9    -12.5636639 -0.205347E-11  0.197E-05    5.38    1466.7  T
     SCC iter.                  ...        0 min,  0.003 sec
     gradient                   ...        0 min,  0.003 sec
 * total energy  :   -12.3844859 Eh     change       -0.7015358E-02 Eh
   gradient norm :     0.0491324 Eh/α   predicted    -0.5069501E-02 ( -27.74%)
   displ. norm   :     0.5216459 α      lambda       -0.1506758E-01
   maximum displ.:     0.2387326 α      in ANC's #3, #15, #4, ...

........................................................................
.............................. CYCLE   11 ..............................
........................................................................
   1    -12.5934316 -0.125934E+02  0.710E-01    5.15       0.0  T
   2    -12.5940783 -0.646678E-03  0.354E-01    5.09       1.0  T
   3    -12.5941290 -0.507906E-04  0.192E-01    5.23       1.0  T
   4    -12.5942347 -0.105686E-03  0.396E-02    5.18       1.0  T
   5    -12.5942431 -0.834433E-05  0.131E-02    5.19       2.2  T
   6    -12.5942440 -0.927280E-06  0.573E-03    5.19       5.0  T
   7    -12.5942440 -0.245020E-07  0.993E-04    5.19      29.1  T
   8    -12.5942440 -0.769818E-09  0.152E-04    5.19     189.4  T
   9    -12.5942440 -0.120254E-09  0.506E-05    5.19     570.6  T
     SCC iter.                  ...        0 min,  0.003 sec
     gradient                   ...        0 min,  0.004 sec
 * total energy  :   -12.3897489 Eh     change       -0.5263009E-02 Eh
   gradient norm :     0.0955353 Eh/α   predicted    -0.9583851E-02 (  82.10%)
   displ. norm   :     0.5171112 α      lambda       -0.1619517E-01
   maximum displ.:     0.2715800 α      in ANC's #2, #3, #13, ...

........................................................................
.............................. CYCLE   12 ..............................
........................................................................
   1    -12.5997905 -0.125998E+02  0.784E-01    5.55       0.0  T
   2    -12.6004735 -0.683053E-03  0.423E-01    5.68       1.0  T
   3    -12.6005172 -0.437385E-04  0.229E-01    5.54       1.0  T
   4    -12.6007192 -0.201931E-03  0.320E-02    5.61       1.0  T
   5    -12.6007247 -0.551392E-05  0.914E-03    5.60       3.2  T
   6    -12.6007247 -0.561063E-08  0.491E-03    5.60       5.9  T
   7    -12.6007248 -0.899909E-07  0.586E-04    5.60      49.3  T
   8    -12.6007248 -0.538154E-09  0.193E-04    5.60     149.7  T
   9    -12.6007248 -0.104809E-09  0.490E-05    5.60     589.1  T
     SCC iter.                  ...        0 min,  0.003 sec
     gradient                   ...        0 min,  0.004 sec
 * total energy  :   -12.3975913 Eh     change       -0.7842407E-02 Eh
   gradient norm :     0.0723275 Eh/α   predicted    -0.1026291E-01 (  30.86%)
   displ. norm   :     0.6171056 α      lambda       -0.1459651E-01
   maximum displ.:     0.3345004 α      in ANC's #2, #5, #1, ...

........................................................................
.............................. CYCLE   13 ..............................
........................................................................
   1    -12.5786477 -0.125786E+02  0.832E-01    5.85       0.0  T
   2    -12.5796645 -0.101672E-02  0.418E-01    5.87       1.0  T
   3    -12.5797514 -0.869285E-04  0.217E-01    5.83       1.0  T
   4    -12.5798724 -0.121024E-03  0.446E-02    5.85       1.0  T
   5    -12.5798821 -0.964192E-05  0.129E-02    5.85       2.2  T
   6    -12.5798824 -0.325643E-06  0.659E-03    5.85       4.4  T
   7    -12.5798825 -0.120162E-06  0.805E-04    5.85      35.9  T
   8    -12.5798825 -0.481915E-09  0.182E-04    5.85     158.5  T
   9    -12.5798825 -0.125347E-09  0.552E-05    5.85     523.0  T
     SCC iter.                  ...        0 min,  0.003 sec
     gradient                   ...        0 min,  0.004 sec
 * total energy  :   -12.3984103 Eh     change       -0.8190221E-03 Eh
   gradient norm :     0.1014522 Eh/α   predicted    -0.1007758E-01 (1130.44%)
   displ. norm   :     0.4091270 α      lambda       -0.1771270E-01
   maximum displ.:     0.2281839 α      in ANC's #3, #14, #2, ...

........................................................................
.............................. CYCLE   14 ..............................
........................................................................
   1    -12.5690257 -0.125690E+02  0.818E-01    5.34       0.0  T
   2    -12.5704517 -0.142597E-02  0.426E-01    5.24       1.0  T
   3    -12.5707658 -0.314080E-03  0.244E-01    5.39       1.0  T
   4    -12.5708939 -0.128174E-03  0.609E-02    5.34       1.0  T
   5    -12.5709134 -0.194507E-04  0.121E-02    5.36       2.4  T
   6    -12.5709140 -0.597746E-06  0.633E-03    5.36       4.6  T
   7    -12.5709141 -0.561241E-07  0.995E-04    5.36      29.0  T
   8    -12.5709141 -0.186380E-08  0.413E-04    5.36      69.9  T
   9    -12.5709141 -0.103526E-08  0.498E-05    5.36     579.2  T
  10    -12.5709141 -0.852651E-13  0.130E-05    5.36    2223.8  T
     SCC iter.                  ...        0 min,  0.004 sec
     gradient                   ...        0 min,  0.004 sec
 * total energy  :   -12.4046983 Eh     change       -0.6288019E-02 Eh
   gradient norm :     0.0638473 Eh/α   predicted    -0.1033876E-01 (  64.42%)
   displ. norm   :     0.4472832 α      lambda       -0.1320758E-01
   maximum displ.:     0.2440767 α      in ANC's #1, #9, #5, ...

........................................................................
.............................. CYCLE   15 ..............................
........................................................................
   1    -12.5923678 -0.125924E+02  0.587E-01    5.59       0.0  T
   2    -12.5927613 -0.393501E-03  0.350E-01    5.64       1.0  T
   3    -12.5927907 -0.293698E-04  0.174E-01    5.56       1.0  T
   4    -12.5929050 -0.114325E-03  0.410E-02    5.60       1.0  T
   5    -12.5929098 -0.476527E-05  0.108E-02    5.59       2.7  T
   6    -12.5929098 -0.595935E-07  0.350E-03    5.59       8.2  T
   7    -12.5929100 -0.102979E-06  0.106E-03    5.59      27.1  T
   8    -12.5929100 -0.713486E-09  0.184E-04    5.59     157.0  T
   9    -12.5929100 -0.352429E-10  0.540E-05    5.59     535.0  T
     SCC iter.                  ...        0 min,  0.003 sec
     gradient                   ...        0 min,  0.004 sec
 * total energy  :   -12.4024881 Eh     change        0.2210163E-02 Eh
   gradient norm :     0.1057936 Eh/α   predicted    -0.7924963E-02 (-458.57%)
   displ. norm   :     0.3653047 α      lambda       -0.2253650E-01
   maximum displ.:     0.1701533 α      in ANC's #9, #12, #2, ...

........................................................................
.............................. CYCLE   16 ..............................
........................................................................
   1    -12.6137552 -0.126138E+02  0.350E-01    5.80       0.0  T
   2    -12.6140167 -0.261520E-03  0.211E-01    5.78       1.0  T
   3    -12.6140584 -0.416350E-04  0.112E-01    5.76       1.0  T
   4    -12.6140741 -0.157755E-04  0.525E-02    5.75       1.0  T
   5    -12.6140790 -0.483968E-05  0.950E-03    5.74       3.0  T
   6    -12.6140791 -0.104034E-06  0.189E-03    5.74      15.3  T
   7    -12.6140791 -0.113486E-07  0.111E-03    5.74      26.1  T
   8    -12.6140791 -0.284542E-08  0.133E-04    5.74     217.7  T
   9    -12.6140791 -0.181313E-10  0.458E-05    5.74     629.7  T
     SCC iter.                  ...        0 min,  0.003 sec
     gradient                   ...        0 min,  0.004 sec
 * total energy  :   -12.4082364 Eh     change       -0.5748299E-02 Eh
   gradient norm :     0.0701037 Eh/α   predicted    -0.1277197E-01 ( 122.19%)
   displ. norm   :     0.5281381 α      lambda       -0.1684131E-01
   maximum displ.:     0.2879411 α      in ANC's #2, #5, #3, ...

........................................................................
.............................. CYCLE   17 ..............................
........................................................................
   1    -12.5755649 -0.125756E+02  0.500E-01    5.58       0.0  T
   2    -12.5756778 -0.112910E-03  0.276E-01    5.61       1.0  T
   3    -12.5756903 -0.124450E-04  0.599E-02    5.66       1.0  T
   4    -12.5757033 -0.129819E-04  0.242E-02    5.65       1.2  T
   5    -12.5757049 -0.160851E-05  0.853E-03    5.65       3.4  T
   6    -12.5757050 -0.127167E-06  0.226E-03    5.65      12.8  T
   7    -12.5757050 -0.117951E-07  0.115E-03    5.65      25.1  T
   8    -12.5757050 -0.346780E-08  0.124E-04    5.65     232.6  T
   9    -12.5757050 -0.138094E-10  0.359E-05    5.65     803.8  T
     SCC iter.                  ...        0 min,  0.003 sec
     gradient                   ...        0 min,  0.003 sec
 * total energy  :   -12.4100030 Eh     change       -0.1766510E-02 Eh
   gradient norm :     0.0632888 Eh/α   predicted    -0.1076943E-01 ( 509.64%)
   displ. norm   :     0.3701127 α      lambda       -0.1107169E-01
   maximum displ.:     0.2290869 α      in ANC's #10, #1, #8, ...

........................................................................
.............................. CYCLE   18 ..............................
........................................................................
   1    -12.5741592 -0.125742E+02  0.544E-01    5.59       0.0  T
   2    -12.5742972 -0.138002E-03  0.316E-01    5.53       1.0  T
   3    -12.5742865  0.106704E-04  0.765E-02    5.57       1.0  T
   4    -12.5743367 -0.501234E-04  0.380E-02    5.53       1.0  T
   5    -12.5743398 -0.317460E-05  0.482E-03    5.55       6.0  T
   6    -12.5743399 -0.346309E-07  0.267E-03    5.55      10.8  T
   7    -12.5743399 -0.240289E-07  0.594E-04    5.55      48.6  T
   8    -12.5743399 -0.926857E-09  0.166E-04    5.55     173.7  T
   9    -12.5743399 -0.489386E-11  0.410E-05    5.55     704.9  T
     SCC iter.                  ...        0 min,  0.003 sec
     gradient                   ...        0 min,  0.003 sec
 * total energy  :   -12.4118700 Eh     change       -0.1867033E-02 Eh
   gradient norm :     0.0633298 Eh/α   predicted    -0.6294159E-02 ( 237.12%)
   displ. norm   :     0.3809466 α      lambda       -0.1570742E-01
   maximum displ.:     0.1560672 α      in ANC's #10, #12, #22, ...

........................................................................
.............................. CYCLE   19 ..............................
........................................................................
   1    -12.6169678 -0.126170E+02  0.518E-01    5.75       0.0  T
   2    -12.6171972 -0.229429E-03  0.294E-01    5.80       1.0  T
   3    -12.6171780  0.192069E-04  0.124E-01    5.74       1.0  T
   4    -12.6172641 -0.860842E-04  0.355E-02    5.77       1.0  T
   5    -12.6172663 -0.220826E-05  0.109E-02    5.76       2.6  T
   6    -12.6172664 -0.496484E-07  0.277E-03    5.77      10.4  T
   7    -12.6172664 -0.365390E-07  0.125E-03    5.76      23.2  T
   8    -12.6172664 -0.278997E-08  0.125E-04    5.76     231.3  T
   9    -12.6172664 -0.183658E-10  0.524E-05    5.76     551.3  T
     SCC iter.                  ...        0 min,  0.003 sec
     gradient                   ...        0 min,  0.004 sec
 * total energy  :   -12.4127939 Eh     change       -0.9238850E-03 Eh
   gradient norm :     0.0862235 Eh/α   predicted    -0.8993433E-02 ( 873.44%)
   displ. norm   :     0.2909301 α      lambda       -0.1235352E-01
   maximum displ.:     0.1430351 α      in ANC's #2, #5, #3, ...

........................................................................
.............................. CYCLE   20 ..............................
........................................................................
   1    -12.5965446 -0.125965E+02  0.348E-01    5.71       0.0  T
   2    -12.5967147 -0.170112E-03  0.169E-01    5.70       1.0  T
   3    -12.5967246 -0.987364E-05  0.960E-02    5.74       1.0  T
   4    -12.5967509 -0.263773E-04  0.241E-02    5.73       1.2  T
   5    -12.5967523 -0.139215E-05  0.919E-03    5.73       3.1  T
   6    -12.5967524 -0.482774E-07  0.253E-03    5.73      11.4  T
   7    -12.5967524 -0.505525E-07  0.815E-04    5.73      35.4  T
   8    -12.5967524 -0.465601E-09  0.976E-05    5.73     295.9  T
   9    -12.5967524 -0.996181E-11  0.329E-05    5.73     877.1  T
     SCC iter.                  ...        0 min,  0.003 sec
     gradient                   ...        0 min,  0.004 sec
 * total energy  :   -12.4186985 Eh     change       -0.5904596E-02 Eh
   gradient norm :     0.0260483 Eh/α   predicted    -0.6699561E-02 (  13.46%)
   displ. norm   :     0.4631852 α      lambda       -0.3326251E-02
   maximum displ.:     0.2817735 α      in ANC's #2, #6, #22, ...
 * RMSD in coord.:     2.0648673 α      energy gain  -0.1241870E+02 Eh

generating ANC from model Hessian ...
Using Lindh-Hessian (1995)
 Shifting diagonal of input Hessian by   9.722894312753687E-003
 Lowest  eigenvalues of input Hessian
   -0.000000   -0.000000    0.000000    0.000000    0.000000    0.000000
    0.010000    0.010116    0.010240    0.010447    0.011121    0.012609
    0.026044    0.026807    0.033372    0.034358    0.056180    0.060553
 Highest eigenvalues
    0.897079    0.928232    1.501598    1.507804    1.725236    1.787776
 

........................................................................
.............................. CYCLE   21 ..............................
........................................................................
   1    -12.5875103 -0.125875E+02  0.528E-01    5.71       0.0  T
   2    -12.5876322 -0.121953E-03  0.296E-01    5.70       1.0  T
   3    -12.5875816  0.505897E-04  0.111E-01    5.69       1.0  T
   4    -12.5876755 -0.938782E-04  0.150E-02    5.69       1.9  T
   5    -12.5876764 -0.855360E-06  0.600E-03    5.69       4.8  T
   6    -12.5876764 -0.888505E-09  0.240E-03    5.70      12.0  T
   7    -12.5876764 -0.413003E-07  0.585E-04    5.69      49.4  T
   8    -12.5876764 -0.185464E-09  0.822E-05    5.69     351.3  T
   9    -12.5876764 -0.669509E-11  0.335E-05    5.69     862.7  T
  10    -12.5876764 -0.417444E-12  0.334E-06    5.69    8633.7  T
     SCC iter.                  ...        0 min,  0.004 sec
     gradient                   ...        0 min,  0.004 sec
 * total energy  :   -12.4196803 Eh     change       -0.9818049E-03 Eh
   gradient norm :     0.0358842 Eh/α   predicted     0.0000000E+00 (-100.00%)
   displ. norm   :     0.3824653 α      lambda       -0.5303010E-02
   maximum displ.:     0.1998843 α      in ANC's #4, #1, #6, ...

........................................................................
.............................. CYCLE   22 ..............................
........................................................................
   1    -12.5964997 -0.125965E+02  0.465E-01    5.83       0.0  T
   2    -12.5965562 -0.565247E-04  0.257E-01    5.82       1.0  T
   3    -12.5965244  0.318037E-04  0.797E-02    5.85       1.0  T
   4    -12.5965770 -0.525818E-04  0.976E-03    5.84       3.0  T
   5    -12.5965773 -0.250664E-06  0.415E-03    5.84       7.0  T
   6    -12.5965773  0.934142E-09  0.158E-03    5.84      18.3  T
   7    -12.5965773 -0.178644E-07  0.299E-04    5.84      96.6  T
   8    -12.5965773 -0.656115E-10  0.483E-05    5.84     597.2  T
     SCC iter.                  ...        0 min,  0.003 sec
     gradient                   ...        0 min,  0.003 sec
 * total energy  :   -12.4234470 Eh     change       -0.3766708E-02 Eh
   gradient norm :     0.0133207 Eh/α   predicted    -0.3039372E-02 ( -19.31%)
   displ. norm   :     0.4853144 α      lambda       -0.3150330E-02
   maximum displ.:     0.2507187 α      in ANC's #4, #1, #6, ...

........................................................................
.............................. CYCLE   23 ..............................
........................................................................
   1    -12.5993883 -0.125994E+02  0.563E-01    5.88       0.0  T
   2    -12.5994425 -0.542758E-04  0.318E-01    5.87       1.0  T
   3    -12.5994337  0.883018E-05  0.544E-02    5.90       1.0  T
   4    -12.5994613 -0.275541E-04  0.129E-02    5.89       2.2  T
   5    -12.5994616 -0.364463E-06  0.522E-03    5.89       5.5  T
   6    -12.5994616 -0.139671E-07  0.111E-03    5.89      26.1  T
   7    -12.5994616 -0.102190E-07  0.368E-04    5.89      78.4  T
   8    -12.5994616 -0.730527E-10  0.688E-05    5.89     419.5  T
   9    -12.5994616 -0.182787E-11  0.252E-05    5.89    1146.9  T
     SCC iter.                  ...        0 min,  0.003 sec
     gradient                   ...        0 min,  0.004 sec
 * total energy  :   -12.4251336 Eh     change       -0.1686627E-02 Eh
   gradient norm :     0.0187206 Eh/α   predicted    -0.1946150E-02 (  15.39%)
   displ. norm   :     0.4682815 α      lambda       -0.2380816E-02
   maximum displ.:     0.2509097 α      in ANC's #1, #4, #6, ...

........................................................................
.............................. CYCLE   24 ..............................
........................................................................
   1    -12.5992997 -0.125993E+02  0.428E-01    5.88       0.0  T
   2    -12.5993171 -0.174013E-04  0.244E-01    5.89       1.0  T
   3    -12.5993243 -0.715070E-05  0.140E-02    5.89       2.1  T
   4    -12.5993244 -0.732853E-07  0.696E-03    5.89       4.1  T
   5    -12.5993245 -0.149372E-06  0.221E-03    5.89      13.1  T
   6    -12.5993245 -0.170051E-07  0.438E-04    5.89      65.9  T
   7    -12.5993245 -0.770051E-11  0.131E-04    5.89     220.0  T
   8    -12.5993245 -0.812843E-10  0.456E-05    5.89     633.2  T
     SCC iter.                  ...        0 min,  0.003 sec
     gradient                   ...        0 min,  0.004 sec
 * total energy  :   -12.4266661 Eh     change       -0.1532513E-02 Eh
   gradient norm :     0.0211368 Eh/α   predicted    -0.1451459E-02 (  -5.29%)
   displ. norm   :     0.4260477 α      lambda       -0.1598902E-02
   maximum displ.:     0.2681542 α      in ANC's #1, #6, #4, ...

........................................................................
.............................. CYCLE   25 ..............................
........................................................................
   1    -12.5985054 -0.125985E+02  0.481E-01    5.88       0.0  T
   2    -12.5985516 -0.461685E-04  0.274E-01    5.89       1.0  T
   3    -12.5985254  0.261984E-04  0.658E-02    5.88       1.0  T
   4    -12.5985678 -0.424403E-04  0.939E-03    5.89       3.1  T
   5    -12.5985680 -0.191402E-06  0.355E-03    5.89       8.1  T
   6    -12.5985680 -0.248775E-09  0.102E-03    5.89      28.3  T
   7    -12.5985680 -0.815866E-08  0.300E-04    5.89      96.2  T
   8    -12.5985680 -0.536211E-10  0.524E-05    5.89     550.4  T
   9    -12.5985680 -0.639488E-12  0.200E-05    5.89    1446.5  T
     SCC iter.                  ...        0 min,  0.003 sec
     gradient                   ...        0 min,  0.003 sec
 * total energy  :   -12.4277115 Eh     change       -0.1045345E-02 Eh
   gradient norm :     0.0132273 Eh/α   predicted    -0.9445607E-03 (  -9.64%)
   displ. norm   :     0.4445628 α      lambda       -0.1264798E-02
   maximum displ.:     0.2671293 α      in ANC's #1, #6, #4, ...

........................................................................
.............................. CYCLE   26 ..............................
........................................................................
   1    -12.5983667 -0.125984E+02  0.399E-01    5.92       0.0  T
   2    -12.5983891 -0.223522E-04  0.229E-01    5.93       1.0  T
   3    -12.5983816  0.754733E-05  0.385E-02    5.91       1.0  T
   4    -12.5983976 -0.160210E-04  0.959E-03    5.93       3.0  T
   5    -12.5983977 -0.168235E-06  0.291E-03    5.93       9.9  T
   6    -12.5983977 -0.651198E-08  0.593E-04    5.93      48.7  T
   7    -12.5983978 -0.140405E-08  0.285E-04    5.93     101.2  T
   8    -12.5983978 -0.166347E-09  0.413E-05    5.93     698.2  T
   9    -12.5983978 -0.116707E-11  0.177E-05    5.93    1627.6  T
     SCC iter.                  ...        0 min,  0.003 sec
     gradient                   ...        0 min,  0.003 sec
 * total energy  :   -12.4283489 Eh     change       -0.6373958E-03 Eh
   gradient norm :     0.0150042 Eh/α   predicted    -0.7573843E-03 (  18.82%)
   displ. norm   :     0.2945826 α      lambda       -0.9614214E-03
   maximum displ.:     0.1745719 α      in ANC's #1, #4, #6, ...

........................................................................
.............................. CYCLE   27 ..............................
........................................................................
   1    -12.6003936 -0.126004E+02  0.321E-01    5.95       0.0  T
   2    -12.6004074 -0.138129E-04  0.183E-01    5.94       1.0  T
   3    -12.6004059  0.152109E-05  0.261E-02    5.96       1.1  T
   4    -12.6004131 -0.723580E-05  0.693E-03    5.95       4.2  T
   5    -12.6004132 -0.448290E-07  0.172E-03    5.95      16.8  T
   6    -12.6004132 -0.362234E-08  0.361E-04    5.95      80.0  T
   7    -12.6004132 -0.239346E-09  0.193E-04    5.95     149.6  T
   8    -12.6004132 -0.109761E-09  0.415E-05    5.95     696.4  T
   9    -12.6004132 -0.111378E-11  0.144E-05    5.95    2008.4  T
     SCC iter.                  ...        0 min,  0.003 sec
     gradient                   ...        0 min,  0.003 sec
 * total energy  :   -12.4290365 Eh     change       -0.6876332E-03 Eh
   gradient norm :     0.0115364 Eh/α   predicted    -0.5224277E-03 ( -24.03%)
   displ. norm   :     0.3950546 α      lambda       -0.1007731E-02
   maximum displ.:     0.2561633 α      in ANC's #1, #6, #4, ...

........................................................................
.............................. CYCLE   28 ..............................
........................................................................
   1    -12.6049138 -0.126049E+02  0.366E-01    5.97       0.0  T
   2    -12.6049258 -0.120302E-04  0.211E-01    5.96       1.0  T
   3    -12.6049299 -0.404146E-05  0.150E-02    5.95       1.9  T
   4    -12.6049306 -0.725423E-06  0.802E-03    5.95       3.6  T
   5    -12.6049307 -0.123103E-06  0.200E-03    5.95      14.4  T
   6    -12.6049307 -0.406489E-08  0.552E-04    5.95      52.3  T
   7    -12.6049307 -0.142572E-09  0.110E-04    5.95     262.8  T
   8    -12.6049307 -0.684501E-10  0.467E-05    5.95     618.1  T
     SCC iter.                  ...        0 min,  0.003 sec
     gradient                   ...        0 min,  0.003 sec
 * total energy  :   -12.4293096 Eh     change       -0.2730727E-03 Eh
   gradient norm :     0.0177686 Eh/α   predicted    -0.5825058E-03 ( 113.32%)
   displ. norm   :     0.4552577 α      lambda       -0.1009987E-02
   maximum displ.:     0.2526467 α      in ANC's #1, #4, #6, ...

........................................................................
.............................. CYCLE   29 ..............................
........................................................................
   1    -12.5943902 -0.125944E+02  0.483E-01    5.93       0.0  T
   2    -12.5944213 -0.310837E-04  0.274E-01    5.92       1.0  T
   3    -12.5944251 -0.376479E-05  0.289E-02    5.95       1.0  T
   4    -12.5944329 -0.781575E-05  0.974E-03    5.94       3.0  T
   5    -12.5944331 -0.183921E-06  0.362E-03    5.94       8.0  T
   6    -12.5944331 -0.672117E-08  0.556E-04    5.94      52.0  T
   7    -12.5944331 -0.893099E-10  0.215E-04    5.94     134.4  T
   8    -12.5944331 -0.299639E-09  0.610E-05    5.94     473.3  T
   9    -12.5944331 -0.536460E-11  0.239E-05    5.94    1207.1  T
     SCC iter.                  ...        0 min,  0.003 sec
     gradient                   ...        0 min,  0.003 sec
 * total energy  :   -12.4295483 Eh     change       -0.2387027E-03 Eh
   gradient norm :     0.0177358 Eh/α   predicted    -0.6096526E-03 ( 155.40%)
   displ. norm   :     0.1660062 α      lambda       -0.1149864E-02
   maximum displ.:     0.0980226 α      in ANC's #4, #7, #3, ...

........................................................................
.............................. CYCLE   30 ..............................
........................................................................
   1    -12.6064826 -0.126065E+02  0.178E-01    5.97       0.0  T
   2    -12.6064888 -0.620665E-05  0.101E-01    5.97       1.0  T
   3    -12.6064900 -0.117336E-05  0.150E-02    5.98       1.9  T
   4    -12.6064910 -0.101540E-05  0.714E-03    5.98       4.0  T
   5    -12.6064911 -0.782982E-07  0.132E-03    5.98      21.8  T
   6    -12.6064911 -0.842682E-09  0.414E-04    5.98      69.8  T
   7    -12.6064911  0.118305E-10  0.166E-04    5.98     173.4  T
   8    -12.6064911 -0.210937E-09  0.290E-05    5.98     994.7  T
   9    -12.6064911 -0.238032E-12  0.110E-05    5.98    2629.9  T
     SCC iter.                  ...        0 min,  0.003 sec
     gradient                   ...        0 min,  0.003 sec
 * total energy  :   -12.4292685 Eh     change        0.2797453E-03 Eh
   gradient norm :     0.0277866 Eh/α   predicted    -0.5907740E-03 (-311.18%)
   displ. norm   :     0.1194507 α      lambda       -0.1502313E-02
   maximum displ.:     0.0724483 α      in ANC's #7, #1, #4, ...

........................................................................
.............................. CYCLE   31 ..............................
........................................................................
   1    -12.6039734 -0.126040E+02  0.198E-01    5.99       0.0  T
   2    -12.6039978 -0.244030E-04  0.105E-01    6.00       1.0  T
   3    -12.6039937  0.409845E-05  0.469E-02    5.97       1.0  T
   4    -12.6040057 -0.119898E-04  0.679E-03    5.99       4.3  T
   5    -12.6040058 -0.840406E-07  0.292E-03    5.98       9.9  T
   6    -12.6040058 -0.385535E-08  0.410E-04    5.99      70.4  T
   7    -12.6040058 -0.395929E-09  0.207E-04    5.98     139.2  T
   8    -12.6040058 -0.128900E-09  0.256E-05    5.98    1127.5  T
     SCC iter.                  ...        0 min,  0.003 sec
     gradient                   ...        0 min,  0.003 sec
 * total energy  :   -12.4299011 Eh     change       -0.6326016E-03 Eh
   gradient norm :     0.0107850 Eh/α   predicted    -0.7618742E-03 (  20.44%)
   displ. norm   :     0.2352010 α      lambda       -0.3705393E-03
   maximum displ.:     0.1324522 α      in ANC's #1, #4, #5, ...

........................................................................
.............................. CYCLE   32 ..............................
........................................................................
   1    -12.5999715 -0.126000E+02  0.259E-01    5.93       0.0  T
   2    -12.5999911 -0.195553E-04  0.147E-01    5.91       1.0  T
   3    -12.5999820  0.908470E-05  0.426E-02    5.95       1.0  T
   4    -12.5999975 -0.155326E-04  0.652E-03    5.93       4.4  T
   5    -12.5999977 -0.141442E-06  0.228E-03    5.93      12.7  T
   6    -12.5999977 -0.136921E-08  0.281E-04    5.93     102.8  T
   7    -12.5999977 -0.241686E-09  0.136E-04    5.93     212.3  T
   8    -12.5999977 -0.438618E-10  0.291E-05    5.93     991.2  T
     SCC iter.                  ...        0 min,  0.003 sec
     gradient                   ...        0 min,  0.003 sec
 * total energy  :   -12.4300234 Eh     change       -0.1222286E-03 Eh
   gradient norm :     0.0087296 Eh/α   predicted    -0.1955182E-03 (  59.96%)
   displ. norm   :     0.1331117 α      lambda       -0.2148328E-03
   maximum displ.:     0.0720227 α      in ANC's #1, #6, #2, ...

........................................................................
.............................. CYCLE   33 ..............................
........................................................................
   1    -12.6003678 -0.126004E+02  0.156E-01    5.97       0.0  T
   2    -12.6003768 -0.892288E-05  0.872E-02    5.97       1.0  T
   3    -12.6003747  0.204619E-05  0.252E-02    5.96       1.1  T
   4    -12.6003795 -0.477488E-05  0.458E-03    5.97       6.3  T
   5    -12.6003796 -0.788403E-07  0.160E-03    5.97      18.1  T
   6    -12.6003796 -0.509608E-09  0.261E-04    5.97     110.8  T
   7    -12.6003796 -0.454715E-09  0.109E-04    5.97     264.6  T
   8    -12.6003796 -0.184368E-10  0.210E-05    5.97    1376.2  T
     SCC iter.                  ...        0 min,  0.003 sec
     gradient                   ...        0 min,  0.003 sec
 * total energy  :   -12.4301131 Eh     change       -0.8973025E-04 Eh
   gradient norm :     0.0113775 Eh/α   predicted    -0.1093193E-03 (  21.83%)
   displ. norm   :     0.1271033 α      lambda       -0.2665711E-03
   maximum displ.:     0.0677123 α      in ANC's #2, #1, #22, ...

........................................................................
.............................. CYCLE   34 ..............................
........................................................................
   1    -12.6043805 -0.126044E+02  0.135E-01    5.97       0.0  T
   2    -12.6043885 -0.801970E-05  0.747E-02    5.98       1.0  T
   3    -12.6043859  0.260669E-05  0.286E-02    5.98       1.0  T
   4    -12.6043908 -0.493800E-05  0.386E-03    5.98       7.5  T
   5    -12.6043909 -0.504561E-07  0.145E-03    5.98      19.9  T
   6    -12.6043909 -0.219586E-09  0.370E-04    5.98      78.0  T
   7    -12.6043909 -0.772825E-09  0.143E-04    5.98     201.5  T
   8    -12.6043909 -0.433928E-10  0.168E-05    5.98    1716.1  T
     SCC iter.                  ...        0 min,  0.003 sec
     gradient                   ...        0 min,  0.003 sec
 * total energy  :   -12.4302036 Eh     change       -0.9052697E-04 Eh
   gradient norm :     0.0076665 Eh/α   predicted    -0.1354369E-03 (  49.61%)
   displ. norm   :     0.1801886 α      lambda       -0.1949258E-03
   maximum displ.:     0.1101226 α      in ANC's #1, #3, #5, ...

........................................................................
.............................. CYCLE   35 ..............................
........................................................................
   1    -12.6035128 -0.126035E+02  0.178E-01    5.95       0.0  T
   2    -12.6035174 -0.460120E-05  0.101E-01    5.94       1.0  T
   3    -12.6035163  0.107165E-05  0.167E-02    5.95       1.7  T
   4    -12.6035193 -0.292688E-05  0.364E-03    5.94       7.9  T
   5    -12.6035193 -0.169092E-07  0.105E-03    5.94      27.5  T
   6    -12.6035193 -0.948043E-09  0.206E-04    5.94     140.0  T
   7    -12.6035193 -0.923635E-10  0.101E-04    5.94     286.3  T
   8    -12.6035193 -0.378808E-10  0.205E-05    5.94    1406.6  T
     SCC iter.                  ...        0 min,  0.003 sec
     gradient                   ...        0 min,  0.003 sec
 * total energy  :   -12.4303266 Eh     change       -0.1230316E-03 Eh
   gradient norm :     0.0034365 Eh/α   predicted    -0.1006263E-03 ( -18.21%)
   displ. norm   :     0.3688822 α      lambda       -0.2025785E-03
   maximum displ.:     0.1923626 α      in ANC's #1, #4, #2, ...

........................................................................
.............................. CYCLE   36 ..............................
........................................................................
   1    -12.5995828 -0.125996E+02  0.377E-01    5.93       0.0  T
   2    -12.5995997 -0.169003E-04  0.216E-01    5.92       1.0  T
   3    -12.5996023 -0.254459E-05  0.204E-02    5.93       1.4  T
   4    -12.5996065 -0.417574E-05  0.738E-03    5.92       3.9  T
   5    -12.5996066 -0.105322E-06  0.253E-03    5.93      11.4  T
   6    -12.5996066 -0.380600E-08  0.280E-04    5.93     103.1  T
   7    -12.5996066 -0.943245E-11  0.845E-05    5.93     341.6  T
   8    -12.5996066 -0.663469E-11  0.250E-05    5.93    1153.2  T
   9    -12.5996066 -0.386713E-11  0.101E-05    5.93    2863.0  T
     SCC iter.                  ...        0 min,  0.003 sec
     gradient                   ...        0 min,  0.004 sec
 * total energy  :   -12.4303194 Eh     change        0.7202043E-05 Eh
   gradient norm :     0.0110875 Eh/α   predicted    -0.1150767E-03 (*******%)
   displ. norm   :     0.1216736 α      lambda       -0.2411047E-03
   maximum displ.:     0.0713337 α      in ANC's #1, #4, #6, ...

........................................................................
.............................. CYCLE   37 ..............................
........................................................................
   1    -12.6045568 -0.126046E+02  0.110E-01    5.95       0.0  T
   2    -12.6045586 -0.183579E-05  0.632E-02    5.95       1.0  T
   3    -12.6045582  0.459914E-06  0.105E-02    5.94       2.7  T
   4    -12.6045592 -0.108594E-05  0.255E-03    5.94      11.3  T
   5    -12.6045593 -0.103354E-07  0.841E-04    5.94      34.3  T
   6    -12.6045593 -0.173030E-09  0.159E-04    5.94     181.2  T
   7    -12.6045593 -0.106652E-10  0.692E-05    5.94     417.4  T
   8    -12.6045593 -0.321148E-10  0.130E-05    5.94    2215.5  T
     SCC iter.                  ...        0 min,  0.003 sec
     gradient                   ...        0 min,  0.003 sec
 * total energy  :   -12.4304187 Eh     change       -0.9922596E-04 Eh
   gradient norm :     0.0053257 Eh/α   predicted    -0.1223364E-03 (  23.29%)
   displ. norm   :     0.1417956 α      lambda       -0.1257881E-03
   maximum displ.:     0.0945456 α      in ANC's #1, #2, #5, ...

........................................................................
.............................. CYCLE   38 ..............................
........................................................................
   1    -12.6020905 -0.126021E+02  0.151E-01    5.91       0.0  T
   2    -12.6021049 -0.144429E-04  0.833E-02    5.91       1.0  T
   3    -12.6021024  0.251124E-05  0.374E-02    5.91       1.0  T
   4    -12.6021095 -0.705478E-05  0.512E-03    5.91       5.6  T
   5    -12.6021096 -0.835978E-07  0.154E-03    5.91      18.8  T
   6    -12.6021096 -0.368924E-09  0.320E-04    5.91      90.3  T
   7    -12.6021096 -0.487089E-09  0.147E-04    5.91     195.9  T
   8    -12.6021096 -0.378719E-10  0.196E-05    5.91    1475.4  T
     SCC iter.                  ...        0 min,  0.003 sec
     gradient                   ...        0 min,  0.003 sec
 * total energy  :   -12.4303922 Eh     change        0.2648731E-04 Eh
   gradient norm :     0.0089877 Eh/α   predicted    -0.6416012E-04 (-342.23%)
   displ. norm   :     0.0569139 α      lambda       -0.1505671E-03
   maximum displ.:     0.0334783 α      in ANC's #4, #2, #22, ...

........................................................................
.............................. CYCLE   39 ..............................
........................................................................
   1    -12.6034443 -0.126034E+02  0.700E-02    5.93       0.0  T
   2    -12.6034495 -0.517041E-05  0.402E-02    5.93       1.0  T
   3    -12.6034496 -0.114494E-06  0.185E-02    5.93       1.6  T
   4    -12.6034510 -0.137287E-05  0.345E-03    5.93       8.4  T
   5    -12.6034510 -0.433695E-07  0.881E-04    5.93      32.7  T
   6    -12.6034510 -0.178488E-09  0.179E-04    5.93     161.7  T
   7    -12.6034510 -0.160570E-09  0.806E-05    5.93     358.0  T
   8    -12.6034510 -0.920863E-11  0.105E-05    5.93    2752.7  T
     SCC iter.                  ...        0 min,  0.003 sec
     gradient                   ...        0 min,  0.003 sec
 * total energy  :   -12.4304758 Eh     change       -0.8360337E-04 Eh
   gradient norm :     0.0017477 Eh/α   predicted    -0.7552863E-04 (  -9.66%)
   displ. norm   :     0.1497179 α      lambda       -0.2691218E-04
   maximum displ.:     0.0837825 α      in ANC's #2, #1, #22, ...

........................................................................
.............................. CYCLE   40 ..............................
........................................................................
   1    -12.6031023 -0.126031E+02  0.156E-01    5.92       0.0  T
   2    -12.6031049 -0.262385E-05  0.889E-02    5.92       1.0  T
   3    -12.6031060 -0.109690E-05  0.465E-03    5.92       6.2  T
   4    -12.6031061 -0.946711E-07  0.257E-03    5.92      11.3  T
   5    -12.6031061 -0.886207E-08  0.397E-04    5.92      72.7  T
   6    -12.6031061 -0.163508E-09  0.103E-04    5.92     280.6  T
   7    -12.6031061 -0.259348E-12  0.383E-05    5.92     754.4  T
   8    -12.6031061 -0.448530E-11  0.119E-05    5.92    2427.8  T
     SCC iter.                  ...        0 min,  0.003 sec
     gradient                   ...        0 min,  0.004 sec
 * total energy  :   -12.4304886 Eh     change       -0.1281952E-04 Eh
   gradient norm :     0.0040344 Eh/α   predicted    -0.1359156E-04 (   6.02%)
   displ. norm   :     0.0806602 α      lambda       -0.2740245E-04
   maximum displ.:     0.0480779 α      in ANC's #2, #1, #22, ...

........................................................................
.............................. CYCLE   41 ..............................
........................................................................
   1    -12.6034242 -0.126034E+02  0.781E-02    5.91       0.0  T
   2    -12.6034248 -0.636521E-06  0.444E-02    5.91       1.0  T
   3    -12.6034250 -0.173564E-06  0.377E-03    5.91       7.7  T
   4    -12.6034251 -0.110179E-06  0.142E-03    5.91      20.3  T
   5    -12.6034251 -0.487880E-09  0.210E-04    5.91     137.7  T
   6    -12.6034251 -0.403624E-10  0.655E-05    5.91     440.8  T
   7    -12.6034251 -0.149392E-11  0.135E-05    5.91    2134.2  T
     SCC iter.                  ...        0 min,  0.002 sec
     gradient                   ...        0 min,  0.003 sec
 * total energy  :   -12.4305056 Eh     change       -0.1697341E-04 Eh
   gradient norm :     0.0029478 Eh/α   predicted    -0.1379073E-04 ( -18.75%)
   displ. norm   :     0.0308291 α      lambda       -0.1525914E-04
   maximum displ.:     0.0217774 α      in ANC's #2, #6, #1, ...

........................................................................
.............................. CYCLE   42 ..............................
........................................................................
   1    -12.6042915 -0.126043E+02  0.183E-02    5.91       0.0  T
   2    -12.6042918 -0.298493E-06  0.100E-02    5.91       2.9  T
   3    -12.6042918  0.112122E-07  0.470E-03    5.91       6.1  T
   4    -12.6042919 -0.876509E-07  0.770E-04    5.91      37.5  T
   5    -12.6042919 -0.251708E-08  0.238E-04    5.91     121.1  T
   6    -12.6042919 -0.951061E-11  0.327E-05    5.91     883.2  T
   7    -12.6042919 -0.465938E-11  0.157E-05    5.91    1835.4  T
     SCC iter.                  ...        0 min,  0.002 sec
     gradient                   ...        0 min,  0.004 sec
 * total energy  :   -12.4305134 Eh     change       -0.7797365E-05 Eh
   gradient norm :     0.0015796 Eh/α   predicted    -0.7636456E-05 (  -2.06%)
   displ. norm   :     0.0695259 α      lambda       -0.9299919E-05
   maximum displ.:     0.0490792 α      in ANC's #2, #3, #22, ...
 * RMSD in coord.:     1.2751042 α      energy gain  -0.1181491E-01 Eh

generating ANC from model Hessian ...
Using Lindh-Hessian (1995)
 Shifting diagonal of input Hessian by   9.670260876661663E-003
 Lowest  eigenvalues of input Hessian
   -0.000000   -0.000000   -0.000000   -0.000000    0.000000    0.000000
    0.010000    0.010055    0.010136    0.010175    0.010427    0.011163
    0.027365    0.027562    0.034956    0.035723    0.064241    0.064344
 Highest eigenvalues
    0.952718    0.954302    1.559612    1.560653    1.823756    1.825763
 

........................................................................
.............................. CYCLE   43 ..............................
........................................................................
   1    -12.6038725 -0.126039E+02  0.704E-02    5.91       0.0  T
   2    -12.6038731 -0.580271E-06  0.398E-02    5.91       1.0  T
   3    -12.6038732 -0.169528E-06  0.301E-03    5.91       9.6  T
   4    -12.6038733 -0.843799E-07  0.109E-03    5.91      26.5  T
   5    -12.6038733 -0.139247E-08  0.304E-04    5.91      95.1  T
   6    -12.6038733 -0.740989E-10  0.458E-05    5.91     630.5  T
   7    -12.6038733 -0.724754E-12  0.217E-05    5.91    1327.8  T
     SCC iter.                  ...        0 min,  0.002 sec
     gradient                   ...        0 min,  0.004 sec
 * total energy  :   -12.4305231 Eh     change       -0.9734207E-05 Eh
   gradient norm :     0.0016596 Eh/α   predicted     0.0000000E+00 (-100.00%)
   displ. norm   :     0.0535548 α      lambda       -0.2115740E-04
   maximum displ.:     0.0409955 α      in ANC's #2, #4, #1, ...

........................................................................
.............................. CYCLE   44 ..............................
........................................................................
   1    -12.6035659 -0.126036E+02  0.531E-02    5.91       0.0  T
   2    -12.6035662 -0.289188E-06  0.307E-02    5.91       1.0  T
   3    -12.6035661  0.111901E-06  0.461E-03    5.91       6.3  T
   4    -12.6035663 -0.229937E-06  0.105E-03    5.91      27.4  T
   5    -12.6035663 -0.696945E-09  0.246E-04    5.91     117.4  T
   6    -12.6035663 -0.798845E-10  0.448E-05    5.91     644.5  T
   7    -12.6035663 -0.976996E-12  0.197E-05    5.91    1466.5  T
     SCC iter.                  ...        0 min,  0.002 sec
     gradient                   ...        0 min,  0.004 sec
 * total energy  :   -12.4305415 Eh     change       -0.1839127E-04 Eh
   gradient norm :     0.0009351 Eh/α   predicted    -0.1059261E-04 ( -42.40%)
   displ. norm   :     0.0835908 α      lambda       -0.2314197E-04
   maximum displ.:     0.0621732 α      in ANC's #2, #4, #1, ...

........................................................................
.............................. CYCLE   45 ..............................
........................................................................
   1    -12.6032298 -0.126032E+02  0.804E-02    5.91       0.0  T
   2    -12.6032306 -0.716982E-06  0.464E-02    5.91       1.0  T
   3    -12.6032305  0.490313E-07  0.586E-03    5.91       4.9  T
   4    -12.6032309 -0.363123E-06  0.164E-03    5.91      17.6  T
   5    -12.6032309 -0.976849E-09  0.241E-04    5.91     119.8  T
   6    -12.6032309 -0.110058E-09  0.719E-05    5.91     401.5  T
   7    -12.6032309 -0.350298E-11  0.330E-05    5.91     873.8  T
   8    -12.6032309 -0.492939E-11  0.727E-06    5.91    3970.5  T
     SCC iter.                  ...        0 min,  0.003 sec
     gradient                   ...        0 min,  0.004 sec
 * total energy  :   -12.4305617 Eh     change       -0.2017732E-04 Eh
   gradient norm :     0.0021203 Eh/α   predicted    -0.1160838E-04 ( -42.47%)
   displ. norm   :     0.0575720 α      lambda       -0.2172495E-04
   maximum displ.:     0.0410827 α      in ANC's #2, #4, #1, ...

........................................................................
.............................. CYCLE   46 ..............................
........................................................................
   1    -12.6032860 -0.126033E+02  0.542E-02    5.91       0.0  T
   2    -12.6032862 -0.247533E-06  0.310E-02    5.91       1.0  T
   3    -12.6032863 -0.105773E-06  0.157E-03    5.91      18.4  T
   4    -12.6032863 -0.490473E-08  0.886E-04    5.91      32.6  T
   5    -12.6032864 -0.162425E-08  0.206E-04    5.91     140.4  T
   6    -12.6032864 -0.414904E-10  0.352E-05    5.91     820.0  T
   7    -12.6032864 -0.230926E-12  0.101E-05    5.91    2869.7  T
     SCC iter.                  ...        0 min,  0.002 sec
     gradient                   ...        0 min,  0.004 sec
 * total energy  :   -12.4305823 Eh     change       -0.2063753E-04 Eh
   gradient norm :     0.0019237 Eh/α   predicted    -0.1089770E-04 ( -47.19%)
   displ. norm   :     0.2209630 α      lambda       -0.5428946E-04
   maximum displ.:     0.1528541 α      in ANC's #2, #4, #1, ...

........................................................................
.............................. CYCLE   47 ..............................
........................................................................
   1    -12.6032263 -0.126032E+02  0.210E-01    5.92       0.0  T
   2    -12.6032300 -0.368908E-05  0.120E-01    5.92       1.0  T
   3    -12.6032315 -0.142949E-05  0.670E-03    5.92       4.3  T
   4    -12.6032317 -0.206116E-06  0.359E-03    5.92       8.1  T
   5    -12.6032317 -0.178771E-07  0.947E-04    5.92      30.5  T
   6    -12.6032317 -0.113661E-08  0.141E-04    5.92     204.9  T
   7    -12.6032317  0.468958E-12  0.528E-05    5.92     546.9  T
   8    -12.6032317 -0.598455E-11  0.155E-05    5.92    1864.0  T
   9    -12.6032317 -0.170886E-11  0.378E-06    5.92    7630.4  T
     SCC iter.                  ...        0 min,  0.003 sec
     gradient                   ...        0 min,  0.004 sec
 * total energy  :   -12.4306479 Eh     change       -0.6553662E-04 Eh
   gradient norm :     0.0012267 Eh/α   predicted    -0.2773349E-04 ( -57.68%)
   displ. norm   :     0.3260198 α      lambda       -0.6319569E-04
   maximum displ.:     0.2273279 α      in ANC's #2, #4, #1, ...

........................................................................
.............................. CYCLE   48 ..............................
........................................................................
   1    -12.6021326 -0.126021E+02  0.281E-01    5.93       0.0  T
   2    -12.6021387 -0.611210E-05  0.161E-01    5.93       1.0  T
   3    -12.6021412 -0.254426E-05  0.835E-03    5.93       3.5  T
   4    -12.6021414 -0.194111E-06  0.468E-03    5.93       6.2  T
   5    -12.6021414 -0.363811E-07  0.111E-03    5.93      26.0  T
   6    -12.6021414 -0.152333E-08  0.175E-04    5.93     165.3  T
   7    -12.6021414  0.340528E-11  0.691E-05    5.93     417.6  T
   8    -12.6021414 -0.126512E-10  0.190E-05    5.93    1517.2  T
   9    -12.6021414 -0.275335E-11  0.407E-06    5.93    7095.8  T
     SCC iter.                  ...        0 min,  0.003 sec
     gradient                   ...        0 min,  0.004 sec
 * total energy  :   -12.4307092 Eh     change       -0.6135746E-04 Eh
   gradient norm :     0.0032686 Eh/α   predicted    -0.3309077E-04 ( -46.07%)
   displ. norm   :     0.2148836 α      lambda       -0.6921732E-04
   maximum displ.:     0.1503094 α      in ANC's #2, #4, #1, ...

........................................................................
.............................. CYCLE   49 ..............................
........................................................................
   1    -12.6015760 -0.126016E+02  0.199E-01    5.94       0.0  T
   2    -12.6015790 -0.293900E-05  0.114E-01    5.94       1.0  T
   3    -12.6015801 -0.109618E-05  0.682E-03    5.94       4.2  T
   4    -12.6015803 -0.259547E-06  0.342E-03    5.94       8.5  T
   5    -12.6015803 -0.599388E-08  0.447E-04    5.94      64.6  T
   6    -12.6015803 -0.242945E-09  0.142E-04    5.94     203.6  T
   7    -12.6015803  0.117240E-11  0.641E-05    5.94     450.1  T
   8    -12.6015803 -0.168665E-10  0.129E-05    5.94    2237.7  T
   9    -12.6015803 -0.664357E-12  0.373E-06    5.94    7738.1  T
     SCC iter.                  ...        0 min,  0.003 sec
     gradient                   ...        0 min,  0.004 sec
 * total energy  :   -12.4307618 Eh     change       -0.5261775E-04 Eh
   gradient norm :     0.0038474 Eh/α   predicted    -0.3620656E-04 ( -31.19%)
   displ. norm   :     0.3111632 α      lambda       -0.1165972E-03
   maximum displ.:     0.2206731 α      in ANC's #2, #4, #1, ...

........................................................................
.............................. CYCLE   50 ..............................
........................................................................
   1    -12.6021022 -0.126021E+02  0.278E-01    5.95       0.0  T
   2    -12.6021079 -0.567369E-05  0.160E-01    5.95       1.0  T
   3    -12.6021101 -0.217113E-05  0.903E-03    5.95       3.2  T
   4    -12.6021105 -0.407387E-06  0.467E-03    5.95       6.2  T
   5    -12.6021105 -0.184089E-07  0.865E-04    5.95      33.4  T
   6    -12.6021105 -0.332815E-09  0.196E-04    5.95     147.2  T
   7    -12.6021105 -0.179696E-10  0.102E-04    5.95     282.9  T
   8    -12.6021105 -0.392699E-10  0.179E-05    5.95    1615.3  T
   9    -12.6021105 -0.596856E-12  0.467E-06    5.95    6185.4  T
     SCC iter.                  ...        0 min,  0.003 sec
     gradient                   ...        0 min,  0.004 sec
 * total energy  :   -12.4308483 Eh     change       -0.8652210E-04 Eh
   gradient norm :     0.0034999 Eh/α   predicted    -0.6394379E-04 ( -26.10%)
   displ. norm   :     0.2629761 α      lambda       -0.1111279E-03
   maximum displ.:     0.1863038 α      in ANC's #2, #4, #1, ...

........................................................................
.............................. CYCLE   51 ..............................
........................................................................
   1    -12.6036453 -0.126036E+02  0.230E-01    5.96       0.0  T
   2    -12.6036496 -0.435461E-05  0.133E-01    5.96       1.0  T
   3    -12.6036510 -0.135891E-05  0.881E-03    5.96       3.3  T
   4    -12.6036516 -0.560863E-06  0.401E-03    5.96       7.2  T
   5    -12.6036516 -0.149967E-07  0.968E-04    5.96      29.8  T
   6    -12.6036516 -0.547479E-09  0.148E-04    5.96     194.7  T
   7    -12.6036516 -0.915712E-11  0.451E-05    5.96     639.8  T
   8    -12.6036516 -0.845546E-12  0.142E-05    5.96    2037.4  T
     SCC iter.                  ...        0 min,  0.003 sec
     gradient                   ...        0 min,  0.004 sec
 * total energy  :   -12.4309308 Eh     change       -0.8249533E-04 Eh
   gradient norm :     0.0024601 Eh/α   predicted    -0.5940664E-04 ( -27.99%)
   displ. norm   :     0.5209539 α      lambda       -0.1169225E-03
[...]
   3    -12.5861822  0.311021E-05  0.235E-02    5.35       1.2  T
   4    -12.5861879 -0.574537E-05  0.452E-03    5.35       6.4  T
   5    -12.5861880 -0.598402E-07  0.178E-03    5.35      16.2  T
   6    -12.5861880 -0.535712E-09  0.316E-04    5.35      91.3  T
   7    -12.5861880 -0.293152E-09  0.164E-04    5.35     176.5  T
   8    -12.5861880 -0.961364E-10  0.341E-05    5.35     846.9  T
   9    -12.5861880 -0.275335E-11  0.939E-06    5.35    3074.7  T
     SCC iter.                  ...        0 min,  0.003 sec
     gradient                   ...        0 min,  0.004 sec
 * total energy  :   -12.4532015 Eh     change       -0.3450369E-03 Eh
   gradient norm :     0.0093840 Eh/α   predicted    -0.3073780E-03 ( -10.91%)
   displ. norm   :     0.0637138 α      lambda       -0.1600832E-03
   maximum displ.:     0.0363647 α      in ANC's #6, #5, #2, ...

........................................................................
.............................. CYCLE   71 ..............................
........................................................................
   1    -12.5875587 -0.125876E+02  0.829E-02    5.35       0.0  T
   2    -12.5875599 -0.116764E-05  0.463E-02    5.35       1.0  T
   3    -12.5875599 -0.193228E-07  0.654E-03    5.35       4.4  T
   4    -12.5875603 -0.387567E-06  0.187E-03    5.35      15.4  T
   5    -12.5875603 -0.578900E-08  0.703E-04    5.35      41.1  T
   6    -12.5875603 -0.416966E-09  0.136E-04    5.35     212.2  T
   7    -12.5875603 -0.215543E-10  0.662E-05    5.35     436.2  T
     SCC iter.                  ...        0 min,  0.003 sec
     gradient                   ...        0 min,  0.003 sec
 * total energy  :   -12.4532897 Eh     change       -0.8823747E-04 Eh
   gradient norm :     0.0023051 Eh/α   predicted    -0.8036853E-04 (  -8.92%)
   displ. norm   :     0.0881695 α      lambda       -0.6289907E-04
   maximum displ.:     0.0493381 α      in ANC's #2, #6, #1, ...

........................................................................
.............................. CYCLE   72 ..............................
........................................................................
   1    -12.5867177 -0.125867E+02  0.130E-01    5.34       0.0  T
   2    -12.5867203 -0.255044E-05  0.724E-02    5.33       1.0  T
   3    -12.5867208 -0.472902E-06  0.716E-03    5.33       4.0  T
   4    -12.5867213 -0.520455E-06  0.222E-03    5.33      13.0  T
   5    -12.5867213 -0.928585E-08  0.903E-04    5.33      32.0  T
   6    -12.5867213 -0.458355E-09  0.992E-05    5.33     291.0  T
   7    -12.5867213 -0.120970E-11  0.375E-05    5.33     769.3  T
   8    -12.5867213 -0.112355E-10  0.115E-05    5.33    2519.2  T
     SCC iter.                  ...        0 min,  0.003 sec
     gradient                   ...        0 min,  0.004 sec
 * total energy  :   -12.4533242 Eh     change       -0.3453125E-04 Eh
   gradient norm :     0.0019410 Eh/α   predicted    -0.3169500E-04 (  -8.21%)
   displ. norm   :     0.0248484 α      lambda       -0.1356721E-04
   maximum displ.:     0.0103815 α      in ANC's #7, #13, #3, ...

........................................................................
.............................. CYCLE   73 ..............................
........................................................................
   1    -12.5876697 -0.125877E+02  0.462E-02    5.33       0.0  T
   2    -12.5876699 -0.283374E-06  0.257E-02    5.34       1.1  T
   3    -12.5876700 -0.925033E-07  0.186E-03    5.34      15.5  T
   4    -12.5876701 -0.254022E-07  0.901E-04    5.34      32.0  T
   5    -12.5876701 -0.111571E-08  0.209E-04    5.34     138.1  T
   6    -12.5876701 -0.858158E-10  0.617E-05    5.34     468.1  T
   7    -12.5876701 -0.928502E-11  0.257E-05    5.34    1122.0  T
   8    -12.5876701 -0.327560E-11  0.368E-06    5.34    7835.9  T
     SCC iter.                  ...        0 min,  0.003 sec
     gradient                   ...        0 min,  0.004 sec
 * total energy  :   -12.4533311 Eh     change       -0.6894076E-05 Eh
   gradient norm :     0.0018750 Eh/α   predicted    -0.6785424E-05 (  -1.58%)
   displ. norm   :     0.0097817 α      lambda       -0.4551578E-05
   maximum displ.:     0.0056840 α      in ANC's #2, #4, #9, ...

........................................................................
.............................. CYCLE   74 ..............................
........................................................................
   1    -12.5873441 -0.125873E+02  0.165E-02    5.33       0.0  T
   2    -12.5873441 -0.630957E-07  0.908E-03    5.33       3.2  T
   3    -12.5873441 -0.424929E-08  0.126E-03    5.33      22.9  T
   4    -12.5873442 -0.104821E-07  0.451E-04    5.33      64.1  T
   5    -12.5873442 -0.832154E-09  0.205E-04    5.33     140.8  T
   6    -12.5873442 -0.276543E-10  0.272E-05    5.33    1061.7  T
   7    -12.5873442 -0.343725E-11  0.137E-05    5.33    2105.6  T
     SCC iter.                  ...        0 min,  0.003 sec
     gradient                   ...        0 min,  0.004 sec
 * total energy  :   -12.4533341 Eh     change       -0.3029392E-05 Eh
   gradient norm :     0.0007444 Eh/α   predicted    -0.2275472E-05 ( -24.89%)
   displ. norm   :     0.0100880 α      lambda       -0.2152098E-05
   maximum displ.:     0.0047690 α      in ANC's #9, #2, #1, ...

........................................................................
.............................. CYCLE   75 ..............................
........................................................................
   1    -12.5869865 -0.125870E+02  0.157E-02    5.33       0.0  T
   2    -12.5869865 -0.565472E-07  0.897E-03    5.33       3.2  T
   3    -12.5869865  0.205551E-07  0.197E-03    5.33      14.6  T
   4    -12.5869865 -0.398324E-07  0.488E-04    5.33      59.2  T
   5    -12.5869865 -0.347192E-09  0.144E-04    5.33     201.0  T
   6    -12.5869865 -0.805400E-11  0.459E-05    5.33     629.0  T
   7    -12.5869865 -0.940048E-11  0.199E-05    5.33    1450.1  T
     SCC iter.                  ...        0 min,  0.003 sec
     gradient                   ...        0 min,  0.004 sec
 * total energy  :   -12.4533346 Eh     change       -0.4115832E-06 Eh
   gradient norm :     0.0006697 Eh/α   predicted    -0.1078054E-05 ( 161.93%)
   displ. norm   :     0.0071713 α      lambda       -0.1699354E-05
   maximum displ.:     0.0038460 α      in ANC's #9, #11, #3, ...

........................................................................
.............................. CYCLE   76 ..............................
........................................................................
   1    -12.5871422 -0.125871E+02  0.106E-02    5.33       0.0  T
   2    -12.5871423 -0.168393E-07  0.594E-03    5.33       4.9  T
   3    -12.5871423  0.186564E-08  0.925E-04    5.33      31.2  T
   4    -12.5871423 -0.648210E-08  0.329E-04    5.33      87.6  T
   5    -12.5871423 -0.165704E-09  0.118E-04    5.33     244.7  T
   6    -12.5871423 -0.216342E-10  0.222E-05    5.33    1302.2  T
   7    -12.5871423 -0.215472E-11  0.108E-05    5.33    2664.7  T
     SCC iter.                  ...        0 min,  0.003 sec
     gradient                   ...        0 min,  0.004 sec
 * total energy  :   -12.4533352 Eh     change       -0.5956618E-06 Eh
   gradient norm :     0.0005545 Eh/α   predicted    -0.8488097E-06 (  42.50%)
   displ. norm   :     0.0046964 α      lambda       -0.8700224E-06
   maximum displ.:     0.0020978 α      in ANC's #7, #8, #14, ...

........................................................................
.............................. CYCLE   77 ..............................
........................................................................
   1    -12.5873269 -0.125873E+02  0.891E-03    5.33       0.0  T
   2    -12.5873269 -0.219330E-07  0.496E-03    5.33       5.8  T
   3    -12.5873269  0.409227E-08  0.103E-03    5.33      27.9  T
   4    -12.5873269 -0.102910E-07  0.255E-04    5.33     113.1  T
   5    -12.5873269 -0.160297E-09  0.100E-04    5.33     288.0  T
   6    -12.5873269 -0.446576E-11  0.195E-05    5.33    1484.2  T
   7    -12.5873269 -0.147793E-11  0.931E-06    5.33    3100.4  T
     SCC iter.                  ...        0 min,  0.003 sec
     gradient                   ...        0 min,  0.004 sec
 * total energy  :   -12.4533355 Eh     change       -0.3737905E-06 Eh
   gradient norm :     0.0003170 Eh/α   predicted    -0.4345266E-06 (  16.25%)
   displ. norm   :     0.0034636 α      lambda       -0.2096465E-06
   maximum displ.:     0.0026849 α      in ANC's #2, #1, #4, ...

........................................................................
.............................. CYCLE   78 ..............................
........................................................................
   1    -12.5872034 -0.125872E+02  0.449E-03    5.33       0.0  T
   2    -12.5872034 -0.454513E-08  0.252E-03    5.33      11.5  T
   3    -12.5872034  0.334452E-09  0.425E-04    5.33      68.0  T
   4    -12.5872034 -0.180686E-08  0.116E-04    5.33     249.7  T
   5    -12.5872034 -0.259455E-10  0.432E-05    5.33     668.9  T
   6    -12.5872034 -0.141576E-11  0.937E-06    5.33    3081.3  T
     SCC iter.                  ...        0 min,  0.015 sec
     gradient                   ...        0 min,  0.004 sec
 * total energy  :   -12.4533357 Eh     change       -0.1346497E-06 Eh
   gradient norm :     0.0000921 Eh/α   predicted    -0.1039538E-06 ( -22.80%)
   displ. norm   :     0.0010327 α      lambda       -0.1995398E-07
   maximum displ.:     0.0005193 α      in ANC's #1, #2, #11, ...

........................................................................
.............................. CYCLE   79 ..............................
........................................................................
   1    -12.5872211 -0.125872E+02  0.115E-03    5.33       0.0  T
   2    -12.5872211 -0.217588E-09  0.655E-04    5.33      44.1  T
   3    -12.5872211 -0.463096E-11  0.946E-05    5.33     305.3  T
   4    -12.5872211 -0.785896E-10  0.361E-05    5.33     799.6  T
   5    -12.5872211 -0.161116E-11  0.885E-06    5.33    3261.9  T
     SCC iter.                  ...        0 min,  0.002 sec
     gradient                   ...        0 min,  0.015 sec
 * total energy  :   -12.4533357 Eh     change       -0.1148189E-07 Eh
   gradient norm :     0.0000350 Eh/α   predicted    -0.9567849E-08 ( -16.67%)
   displ. norm   :     0.0004833 α      lambda       -0.5561280E-08
   maximum displ.:     0.0002578 α      in ANC's #3, #1, #2, ...

   *** GEOMETRY OPTIMIZATION CONVERGED AFTER 79 ITERATIONS ***

------------------------------------------------------------------------
 total energy gain :          -0.0102947 Eh       -6.4600 kcal/mol
 total RMSD        :           2.8171126 α         1.4908 Å
------------------------------------------------------------------------

 ANCopt (total)                0 d,  0 h,  0 min,  1.031 sec
 optimizer setup                ...        0 min,  0.001 sec (  0.101%)
 model hessian                  ...        0 min,  0.010 sec (  0.994%)
 ANC generation                 ...        0 min,  0.002 sec (  0.218%)
 coordinate transformation      ...        0 min,  0.001 sec (  0.061%)
 single point calculation       ...        0 min,  0.807 sec ( 78.276%)
 optimization log               ...        0 min,  0.095 sec (  9.263%)
 hessian update                 ...        0 min,  0.001 sec (  0.066%)
 rational function              ...        0 min,  0.012 sec (  1.176%)

================
 final structure:
================
$coord
    4.29992532586364    1.74633256296480    1.88195267625369      N 
    4.25534728684237   -0.38876760440870    0.39649556045718      B 
    0.18184362370756   -4.51503598101341   -1.74426513360034      N 
   -0.41631045358544   -2.70175240227253    0.04287643518040      B 
   -0.19982604887343   -4.46643711501375   -3.60527782852982      H 
    5.84070714454503   -1.91094335948808    0.76825496459947      H 
    2.66398002414058   -0.44621886825839   -1.22520807988405      H 
    2.90626007342664    3.03393847091258    1.88637081146529      H 
    5.73685981901593    2.20343167801441    3.02829708154532      H 
    1.43987769277505   -5.86396443204538   -1.31161244228260      H 
    0.60038690553895   -2.86786777332929    2.05554395347311      H 
   -1.93778627834024   -1.15138987813212   -0.36992466054323      H 
$end
 
 Bond Distances (Angstroems)
 ---------------------------
N1-B2=1.3766         N1-H8=1.0041         N1-H9=1.0023         B2-N1=1.3766         B2-H6=1.1796         B2-H7=1.2027         
N3-B4=1.3839         N3-H5=1.0056         N3-H10=1.0026        B4-N3=1.3839         B4-H11=1.1965        B4-H12=1.1701        
H5-N3=1.0056         H6-B2=1.1796         H7-B2=1.2027         H8-N1=1.0041         H9-N1=1.0023         H10-N3=1.0026        
H11-B4=1.1965        H12-B4=1.1701        
 B  H  Rav=1.1872 sigma=0.0130  Rmin=1.1701  Rmax=1.2027     4
 N  H  Rav=1.0037 sigma=0.0013  Rmin=1.0023  Rmax=1.0056     4
 N  B  Rav=1.3803 sigma=0.0037  Rmin=1.3766  Rmax=1.3839     2
 
 selected bond angles (degree)
 --------------------
H8-N1-B2=123.07                H9-N1-B2=123.82                H9-N1-H8=113.08                H6-B2-N1=116.94                
H7-B2-N1=116.12                H7-B2-H6=126.85                H5-N3-B4=127.27                H10-N3-B4=119.31               
H10-N3-H5=112.04               H11-B4-N3=117.03               H12-B4-N3=121.06               H12-B4-H11=121.81              
 
 selected dihedral angles (degree)
 ---------------------------------
H6-B2-N1-H8=188.83            H6-B2-N1-H9= 10.63            H7-B2-N1-H8= 12.11            H7-B2-N1-H9=193.91            
H11-B4-N3-H5=193.70           H11-B4-N3-H10=359.11          H12-B4-N3-H5= 17.15           H12-B4-N3-H10=182.56          
 
 CMA Distance (Angstroems)
 ---------------------------
R(CMA):  3.5080

========================================================================
 FINAL SINGLEPOINT CALCULATION ON OPTIMIZED GEOMETRY
========================================================================

          ...................................................
          :                      SETUP                      :
          :.................................................:
          :  # basis functions                  24          :
          :  # atomic orbitals                  24          :
          :  # shells                           16          :
          :  # electrons                        24          :
          :  max. iterations                    50          :
          :  Hamiltonian                  GFN2-xTB          :
          :  restarted?                      false          :
          :  GBSA solvation                  false          :
          :  PC potential                    false          :
          :  electronic temp.          300.0000000     K    :
          :  accuracy                    1.0000000          :
          :  -> integral cutoff          0.2500000E+02      :
          :  -> integral neglect         0.1000000E-07      :
          :  -> SCF convergence          0.1000000E-05 Eh   :
          :  -> wf. convergence          0.1000000E-03 e    :
          :  Broyden damping             0.4000000          :
          ...................................................

 iter      E             dE          RMSdq      gap      omega  full diag
   1    -12.5872211 -0.125872E+02  0.176E-06    5.33       0.0  T
   2    -12.5872211 -0.159872E-13  0.944E-07    5.33   30590.0  T
   3    -12.5872211 -0.355271E-14  0.479E-07    5.33   60286.4  T

   *** convergence criteria satisfied after 3 iterations ***

         #    Occupation            Energy/Eh            Energy/eV
      -------------------------------------------------------------
         1        2.0000           -0.5939717             -16.1628
       ...           ...                  ...                  ...
         6        2.0000           -0.4964738             -13.5097
         7        2.0000           -0.4391412             -11.9496
         8        2.0000           -0.4276644             -11.6373
         9        2.0000           -0.4162580             -11.3270
        10        2.0000           -0.4070468             -11.0763
        11        2.0000           -0.3893019             -10.5934
        12        2.0000           -0.3811031             -10.3703 (HOMO)
        13                         -0.1851285              -5.0376 (LUMO)
        14                         -0.1397852              -3.8037
        15                          0.0680700               1.8523
        16                          0.0797535               2.1702
        17                          0.1953202               5.3149
       ...                                ...                  ...
        24                          0.5276309              14.3576
      -------------------------------------------------------------
                  HL-Gap            0.1959747 Eh            5.3327 eV
             Fermi-level           -0.2831158 Eh           -7.7040 eV

 SCC (total)                   0 d,  0 h,  0 min,  0.188 sec
 SCC setup                      ...        0 min,  0.000 sec (  0.115%)
 Dispersion                     ...        0 min,  0.000 sec (  0.045%)
 integral evaluation            ...        0 min,  0.002 sec (  1.105%)
 zeroth order Hamiltonian       ...        0 min,  0.000 sec (  0.019%)
 iterations                     ...        0 min,  0.001 sec (  0.685%)
 molecular gradient             ...        0 min,  0.003 sec (  1.817%)
 printout                       ...        0 min,  0.181 sec ( 96.185%)

         :::::::::::::::::::::::::::::::::::::::::::::::::::::
         ::                     SUMMARY                     ::
         :::::::::::::::::::::::::::::::::::::::::::::::::::::
         :: total energy              -12.453335673904 Eh   ::
         :: gradient norm               0.000035046536 Eh/α ::
         :: HOMO-LUMO gap               5.332742992450 eV   ::
         ::.................................................::
         :: SCC energy                -12.587221079420 Eh   ::
         :: -> isotropic ES             0.060061142499 Eh   ::
         :: -> anisotropic ES           0.011715080424 Eh   ::
         :: -> anisotropic XC           0.005337139307 Eh   ::
         :: -> dispersion              -0.005141311629 Eh   ::
         :: repulsion energy            0.168359215420 Eh   ::
         :: add. restraining           -0.034477973541 Eh   ::
         :::::::::::::::::::::::::::::::::::::::::::::::::::::

  # of points on xtbopt.log:           79
  doing short optimizations without Vbias ... 
   10  unconstrained dE :      0.003075
   20  unconstrained dE :      0.002247
   30  unconstrained dE :      0.001625
   40  unconstrained dE :      0.001974
   50  unconstrained dE :      0.001961
   60  unconstrained dE :      0.003528
   70  unconstrained dE :      0.004801
 final path written to xtbpath_3.xyz
 
 energies in kcal/mol, RMSD in Bohr
run 1  barrier:   1.80  dE:   0.02  ed-prod RMSD:  2.79  ed-startpath RMSD:  0.05  prod-endpath RMSD:  3.25
run 2  barrier:   2.56  dE:   2.21  ed-prod RMSD:  2.59  ed-startpath RMSD:  0.05  prod-endpath RMSD:  2.39
run 3  barrier:   3.19  dE:   3.19  ed-prod RMSD:  2.63  ed-startpath RMSD:  0.04  prod-endpath RMSD:  2.34
 check potential xtbpath.dat (cummu. dRMSD in Bohr vs. E in kcal)

------------------------------------------------------------------------
 * finished run on 2020/07/03 at 17:34:57.894     
------------------------------------------------------------------------
 total:
 * wall-time:     0 d,  0 h,  0 min, 36.983 sec
 *  cpu-time:     0 d,  0 h,  0 min,  8.552 sec
 * ratio c/w:     0.231 speedup
 SCF:
 * wall-time:     0 d,  0 h,  0 min,  0.234 sec
 *  cpu-time:     0 d,  0 h,  0 min,  0.008 sec
 * ratio c/w:     0.034 speedup

