      -----------------------------------------------------------      
     |                   =====================                   |     
     |                           x T B                           |     
     |                   =====================                   |     
     |                         S. Grimme                         |     
     |          Mulliken Center for Theoretical Chemistry        |     
     |                    University of Bonn                     |     
     |                 Version 6.1.4 (SAW190525)                 |     
      -----------------------------------------------------------      

   This program is distributed in the hope that it will be useful,
   but WITHOUT ANY WARRANTY; without even the implied warranty of
   MERCHANTABILITY or FITNESS FOR A PARTICULAR PURPOSE.
   
   FOR NON-COMMERCIAL, ACADEMIA USE ONLY.
   
   Cite this work as:
   S. Grimme, C. Bannwarth, P. Shushkov, J. Comput. Theory Chem., 2017,
   13, 1989-2009. DOI: 10.1021/acs.jctc.7b00118
   C. Bannwarth, S. Ehlert and S. Grimme., J. Comput. Theory Chem., 2019,
   just accepted. DOI: 10.1021/acs.jctc.8b01176
   
   for sTDA-xTB:
   S. Grimme and C. Bannwarth, J. Chem. Phys., 2016, 145, 054103.
   DOI: 10.1063/1.4959605
   
   in the mass-spec context:
   V. Asgeirsson, C. Bauer and S. Grimme, Chem. Sci., 2017, 8, 4879.
   DOI: 10.1039/c7sc00601b
   
   for metadynamics refer to:
   S. Grimme, J. Chem. Theory Comput. Article ASAP, 2019,
   DOI: 10.1021/acs.jctc.9b00143
   
   with help from (in alphabetical order)
   C. Bannwarth, F. Bohle, G. Brandenburg, E. Caldeweyher, M. Checinski,
   S. Dohm, S. Ehlert, S. Ehrlich, F. März, H. Neugebauer, J. Pisarek,
   P. Pracht, P. Shushkov, and S. Spicher.
   
 * started run on 2020/07/03 at 17:36:20.805     

           -------------------------------------------------
          |                Calculation Setup                |
           -------------------------------------------------

          program call               : /opt/xtb/6.1/xtb-190527/bin/xtb 6r_rel.xyz --path --input path.inp --gfn2 --chrg 0
          hostname                   : mnode006
          coordinate file            : 6r_rel.xyz
          omp threads                :                     1
          number of atoms            :                    12
          number of electrons        :                    24
          charge                     :                     0
          spin                       :                   0.0
          first test random number   :      0.81964234526716


molecular fragmentation (1/2 indicates fragments):
112221111222
# atoms in fragment 1/2:     6     6
 fragment masses (1/2) :       28.85       28.85
CMA distance (Bohr)    :   6.740
constraining FC (au)   :  0.0500

########################################################################
# WARNING! Please study the warnings concerning your input carefully
#  - XTBPATH is not set, using XTBHOME instead
########################################################################

           ------------------------------------------------- 
          |                 G F N 2 - x T B                 |
          | Geometry, Frequencies, Noncovalent interactions |
          |            JCTC 2018 parametrisation            |
           ------------------------------------------------- 
             k(s)              :                1.8500
             k(p)              :                2.2300
             k(d)              :                2.2300
             k(f)              :                2.0000
             kEN (H0ij)        :               -2.0000
             D4 a1             :                0.5200
             D4 a2             :                5.0000
             D4 s6             :                1.0000
             D4 s8             :                2.7000
             D4 s9             :                5.0000
             alphaj            :                2.0000

  Z AO/shell   Hii/eV     exponent
  1     Wed Apr 25 08:07:45 CEST 2018   EN: 2.200 GM2: 0.406  GM3: 0.0800  RAES: 1.40
     1s    -10.707211    1.230000
  5     Mon Apr 23 23:47:44 CEST 2018   EN: 2.040 GM2: 0.514  GM3: 0.0946  RAES: 5.00
     2s     -9.224376    1.479444
     2p     -7.419002    1.479805
  7     Wed Apr 25 08:07:45 CEST 2018   EN: 3.040 GM2: 0.461  GM3:-0.0640  RAES: 1.90
     2s    -16.686243    2.339881
     2p    -12.523956    2.014332


            Z     q(EN)     CN     RAES       Cart. coordinates
     1  N   5.0   -0.64    2.99    1.92     4.38555     1.45146     1.06526
     2  B   3.0   -0.14    2.96    5.00     5.49400    -0.75220     0.23801
     3  N   5.0   -0.63    2.99    1.92     0.10857    -3.31436    -1.36320
     4  B   3.0   -0.13    2.96    5.00    -1.53648    -3.15321     0.64345
     5  H   1.0    0.26    1.00    1.43    -0.31255    -4.14868    -3.01995
     6  H   1.0    0.12    0.98    1.43     5.84935    -2.38969     1.68456
     7  H   1.0    0.12    0.98    1.43     6.09622    -0.91457    -1.89202
     8  H   1.0    0.26    1.00    1.43     4.02069     2.94609    -0.05321
     9  H   1.0    0.26    1.00    1.43     3.81475     1.73334     2.85726
    10  H   1.0    0.27    1.00    1.43     1.89006    -2.64201    -1.30807
    11  H   1.0    0.13    0.98    1.43    -0.86168    -2.15002     2.49873
    12  H   1.0    0.12    0.98    1.43    -3.57144    -4.00504     0.44569

           ------------------------------------------------- 
          |        Self-Consistent Charge Iterations        |
           ------------------------------------------------- 

          ...................................................
          :                      SETUP                      :
          :.................................................:
          :  # basis functions                  24          :
          :  # atomic orbitals                  24          :
          :  # shells                           16          :
          :  # electrons                        24          :
          :  max. iterations                   250          :
          :  Hamiltonian                  GFN2-xTB          :
          :  restarted?                      false          :
          :  GBSA solvation                  false          :
          :  PC potential                    false          :
          :  electronic temp.          300.0000000     K    :
          :  accuracy                    1.0000000          :
          :  -> integral cutoff          0.2500000E+02      :
          :  -> integral neglect         0.1000000E-07      :
          :  -> SCF convergence          0.1000000E-05 Eh   :
          :  -> wf. convergence          0.1000000E-03 e    :
          :  Broyden damping             0.4000000          :
          ...................................................

 iter      E             dE          RMSdq      gap      omega  full diag
   1    -12.4291016 -0.124291E+02  0.928E+00    6.21       0.0  T
   2    -12.5827216 -0.153620E+00  0.601E+00    5.72       1.0  T
   3    -12.5964010 -0.136794E-01  0.249E+00    5.63       1.0  T
   4    -12.6009898 -0.458881E-02  0.888E-01    5.57       1.0  T
   5    -12.6046492 -0.365944E-02  0.296E-01    5.78       1.0  T
   6    -12.6050303 -0.381051E-03  0.108E-01    5.71       1.0  T
   7    -12.6051356 -0.105350E-03  0.164E-02    5.74       1.8  T
   8    -12.6051369 -0.127138E-05  0.797E-03    5.74       3.6  T
   9    -12.6051367  0.160619E-06  0.686E-03    5.73       4.2  T
  10    -12.6051374 -0.655999E-06  0.740E-04    5.73      39.0  T
  11    -12.6051374 -0.638732E-09  0.513E-05    5.73     562.6  T

   *** convergence criteria satisfied after 11 iterations ***

         #    Occupation            Energy/Eh            Energy/eV
      -------------------------------------------------------------
         1        2.0000           -0.6003776             -16.3371
       ...           ...                  ...                  ...
         6        2.0000           -0.5030979             -13.6900
         7        2.0000           -0.4464663             -12.1490
         8        2.0000           -0.4364110             -11.8753
         9        2.0000           -0.4195803             -11.4174
        10        2.0000           -0.4102677             -11.1640
        11        2.0000           -0.4058644             -11.0441
        12        2.0000           -0.3960503             -10.7771 (HOMO)
        13                         -0.1853006              -5.0423 (LUMO)
        14                         -0.1719211              -4.6782
        15                          0.0576196               1.5679
        16                          0.0833917               2.2692
        17                          0.1825624               4.9678
       ...                                ...                  ...
        24                          0.5136138              13.9761
      -------------------------------------------------------------
                  HL-Gap            0.2107497 Eh            5.7348 eV
             Fermi-level           -0.2906755 Eh           -7.9097 eV

 SCC (total)                   0 d,  0 h,  0 min,  0.237 sec
 SCC setup                      ...        0 min,  0.000 sec (  0.189%)
 Dispersion                     ...        0 min,  0.000 sec (  0.047%)
 integral evaluation            ...        0 min,  0.002 sec (  0.869%)
 zeroth order Hamiltonian       ...        0 min,  0.109 sec ( 45.873%)
 iterations                     ...        0 min,  0.005 sec (  2.085%)
 molecular gradient             ...        0 min,  0.004 sec (  1.481%)
 printout                       ...        0 min,  0.117 sec ( 49.438%)

         :::::::::::::::::::::::::::::::::::::::::::::::::::::
         ::                     SUMMARY                     ::
         :::::::::::::::::::::::::::::::::::::::::::::::::::::
         :: total energy              -12.432462223551 Eh   ::
         :: gradient norm               0.000617568127 Eh/α ::
         :: HOMO-LUMO gap               5.734790999564 eV   ::
         ::.................................................::
         :: SCC energy                -12.605137396040 Eh   ::
         :: -> isotropic ES             0.059659293366 Eh   ::
         :: -> anisotropic ES           0.010578375955 Eh   ::
         :: -> anisotropic XC           0.005249523248 Eh   ::
         :: -> dispersion              -0.004713935316 Eh   ::
         :: repulsion energy            0.172665829241 Eh   ::
         :: add. restraining            0.000000000000 Eh   ::
         :::::::::::::::::::::::::::::::::::::::::::::::::::::

           -------------------------------------------------
          |                Property Printout                |
           -------------------------------------------------

    * Orbital Energies and Occupations

         #    Occupation            Energy/Eh            Energy/eV
      -------------------------------------------------------------
         1        2.0000           -0.6003776             -16.3371
         2        2.0000           -0.5911821             -16.0869
         3        2.0000           -0.5255473             -14.3009
         4        2.0000           -0.5191422             -14.1266
         5        2.0000           -0.5112220             -13.9111
         6        2.0000           -0.5030979             -13.6900
         7        2.0000           -0.4464663             -12.1490
         8        2.0000           -0.4364110             -11.8753
         9        2.0000           -0.4195803             -11.4174
        10        2.0000           -0.4102677             -11.1640
        11        2.0000           -0.4058644             -11.0441
        12        2.0000           -0.3960503             -10.7771 (HOMO)
        13                         -0.1853006              -5.0423 (LUMO)
        14                         -0.1719211              -4.6782
        15                          0.0576196               1.5679
        16                          0.0833917               2.2692
        17                          0.1825624               4.9678
        18                          0.2077572               5.6534
        19                          0.3515501               9.5662
        20                          0.3576174               9.7313
        21                          0.4689863              12.7618
        22                          0.4735073              12.8848
        23                          0.4943738              13.4526
        24                          0.5136138              13.9761
      -------------------------------------------------------------
                  HL-Gap            0.2107497 Eh            5.7348 eV
             Fermi-level           -0.2906755 Eh           -7.9097 eV

   #   Z        covCN         q      C6AA      α(0)
   1   7 N      2.561    -0.310    28.002     7.859
   2   5 B      2.716     0.230    17.978     7.108
   3   7 N      2.561    -0.319    28.225     7.890
   4   5 B      2.717     0.230    17.976     7.107
   5   1 H      0.860     0.157     1.352     1.821
   6   1 H      0.939    -0.114     6.080     3.855
   7   1 H      0.937    -0.123     6.452     3.971
   8   1 H      0.860     0.158     1.345     1.817
   9   1 H      0.860     0.163     1.318     1.798
  10   1 H      0.860     0.168     1.285     1.776
  11   1 H      0.938    -0.122     6.402     3.956
  12   1 H      0.938    -0.117     6.200     3.893

 Mol. C6AA /au·bohr⁶  :       1131.782461
 Mol. C8AA /au·bohr⁸  :      23665.799903
 Mol. α(0) /au        :         52.850122


Wiberg/Mayer (AO) data.
largest (>0.10) Wiberg bond orders for each atom
          total WBO             WBO to atom ...
     1  N   3.398        B    2 1.463    H    8 0.961    H    9 0.960
     2  B   3.414        N    1 1.463    H    6 0.968    H    7 0.964
     3  N   3.394        B    4 1.471    H    5 0.961    H   10 0.945
     4  B   3.411        N    3 1.471    H   12 0.968    H   11 0.967
     5  H   0.975        N    3 0.961
     6  H   0.987        B    2 0.968
     7  H   0.985        B    2 0.964
     8  H   0.975        N    1 0.961
     9  H   0.974        N    1 0.960
    10  H   0.972        N    3 0.945
    11  H   0.985        B    4 0.967
    12  H   0.986        B    4 0.968

molecular dipole:
                 x           y           z       tot (Debye)
 q only:        0.144       0.480      -0.248
   full:        0.193       0.659      -0.360       1.971
molecular quadrupole (traceless):
                xx          xy          yy          xz          yz          zz
 q only:       -3.763       1.507       1.986       1.340       3.029       1.777
  q+dip:       -5.983       2.450       2.218       1.702       4.418       3.765
   full:       -5.473       2.291       2.775       1.980       4.138       2.698


           -------------------------------------------------
          | TOTAL ENERGY              -12.432462223551 Eh   |
          | GRADIENT NORM               0.000617568127 Eh/α |
          | HOMO-LUMO GAP               5.734790999564 eV   |
           -------------------------------------------------
           ------------------------------------------------- 
          |                     P A T H                     |
          |            RMSD-Push/Pull Path Finder           |
           ------------------------------------------------- 
 reading reference structures from 6p_rel.xyz ...
initial k push/pull              :    0.010   -0.020
Gaussian width (1/Bohr)          :    0.300
# random initial distor incr +/- :    0.005
# optlevel                       :   2
# of runs                        :   3
approx # structures opt on path  : 100
# of 'an'-optimization steps     :   3
 
  k_push/k_pull internally multiplied by Natoms!
  user info on effect of push/pull parameters
  ang. ed-prod G should be small, Govlp large
   width   k_push  k_pull  |Gbias| ang. ed-prod G  Govlp
   1.000   0.010  -0.020    0.000266   197.5    -0.00000
   0.900   0.015  -0.030    0.000873   170.4     0.00000
   0.800   0.023  -0.045    0.002834   167.2     0.00000
   0.700   0.034  -0.068    0.009058   166.8     0.00000
   0.600   0.051  -0.101    0.028358   166.8     0.00000
   0.500   0.076  -0.152    0.086314   166.8     0.00004
   0.400   0.114  -0.228    0.252211   166.8     0.00033
   0.300   0.171  -0.342    0.690903   166.8     0.00247
   0.200   0.256  -0.513    1.682353   166.8     0.01467
input reactant/product RMSD (Bohr)  :    2.983

 
 optimizing inital path with Vbias ...
actual k push/pull :   0.010  -0.020

          ...................................................
          :                      SETUP                      :
          :.................................................:
          :   optimization level         verytight          :
          :   max. optcycles                   240          :
          :   ANC micro-cycles                  20          :
          :   degrees of freedom                30          :
          :.................................................:
          :   RF solver                   davidson          :
          :   input Hessian                  false          :
          :   write xtbopt.log                true          :
          :   linear?                        false          :
          :   energy convergence         0.1000000E-06 Eh   :
          :   grad. convergence          0.2000000E-03 Eh/α :
          :   maximium RF displ.         1.0000000          :
          :   Hlow (freq-cutoff)         0.1000000E-01      :
          :   Hmax (freq-cutoff)         5.0000000          :
          :   S6 in model hess.         20.0000000          :
          ...................................................

generating ANC from model Hessian ...
Using Lindh-Hessian (1995)
 Shifting diagonal of input Hessian by   1.095110578193170E-002
 Lowest  eigenvalues of input Hessian
    0.010000   -0.000000   -0.000000   -0.000000   -0.000000    0.000000
    0.000000    0.011222    0.011331    0.011509    0.011680    0.011809
    0.028420    0.028760    0.034742    0.035746    0.065500    0.066149
 Highest eigenvalues
    0.950005    0.956139    1.554425    1.555793    1.823272    1.831083
 

........................................................................
.............................. CYCLE    1 ..............................
........................................................................
   1    -12.6049880 -0.126050E+02  0.358E-02    5.74       0.0  T
   2    -12.6049886 -0.616097E-06  0.207E-02    5.74       1.4  T
   3    -12.6049884  0.183667E-06  0.865E-03    5.74       3.3  T
   4    -12.6049888 -0.343997E-06  0.129E-03    5.74      22.3  T
   5    -12.6049888 -0.638505E-08  0.441E-04    5.74      65.5  T
   6    -12.6049888 -0.431619E-10  0.669E-05    5.74     431.4  T
   7    -12.6049888 -0.181419E-10  0.354E-05    5.74     816.2  T
   8    -12.6049888 -0.385114E-11  0.493E-06    5.74    5859.8  T
     SCC iter.                  ...        0 min,  0.003 sec
     gradient                   ...        0 min,  0.004 sec
 * total energy  :   -12.3290362 Eh     change       -0.1232904E+02 Eh
   gradient norm :     0.0118139 Eh/α   predicted     0.0000000E+00 (-100.00%)
   displ. norm   :     0.4155177 α      lambda       -0.2664713E-02
   maximum displ.:     0.3123712 α      in ANC's #6, #3, #5, ...

........................................................................
.............................. CYCLE    2 ..............................
........................................................................
   1    -12.6047311 -0.126047E+02  0.350E-01    5.73       0.0  T
   2    -12.6047458 -0.146343E-04  0.199E-01    5.72       1.0  T
   3    -12.6047451  0.715368E-06  0.264E-02    5.72       1.1  T
   4    -12.6047519 -0.684627E-05  0.582E-03    5.71       5.0  T
   5    -12.6047519 -0.126244E-07  0.193E-03    5.71      14.9  T
   6    -12.6047519 -0.146475E-08  0.278E-04    5.71     104.0  T
   7    -12.6047519 -0.122574E-09  0.160E-04    5.71     180.1  T
   8    -12.6047519 -0.809290E-10  0.301E-05    5.71     958.5  T
   9    -12.6047519 -0.170708E-11  0.775E-06    5.71    3725.7  T
     SCC iter.                  ...        0 min,  0.003 sec
     gradient                   ...        0 min,  0.004 sec
 * total energy  :   -12.3322288 Eh     change       -0.3192596E-02 Eh
   gradient norm :     0.0103439 Eh/α   predicted    -0.1562388E-02 ( -51.06%)
   displ. norm   :     0.5317299 α      lambda       -0.4720955E-02
   maximum displ.:     0.3954478 α      in ANC's #6, #3, #5, ...

........................................................................
.............................. CYCLE    3 ..............................
........................................................................
   1    -12.5995689 -0.125996E+02  0.430E-01    5.70       0.0  T
   2    -12.5995949 -0.260110E-04  0.245E-01    5.67       1.0  T
   3    -12.5995936  0.129344E-05  0.341E-02    5.67       1.0  T
   4    -12.5996052 -0.116137E-04  0.771E-03    5.66       3.7  T
   5    -12.5996052 -0.503547E-07  0.299E-03    5.66       9.7  T
   6    -12.5996053 -0.103899E-08  0.410E-04    5.66      70.4  T
   7    -12.5996053 -0.124118E-09  0.218E-04    5.66     132.3  T
   8    -12.5996053 -0.221368E-09  0.466E-05    5.66     619.1  T
   9    -12.5996053 -0.286526E-11  0.168E-05    5.66    1718.2  T
     SCC iter.                  ...        0 min,  0.003 sec
     gradient                   ...        0 min,  0.003 sec
 * total energy  :   -12.3377100 Eh     change       -0.5481202E-02 Eh
   gradient norm :     0.0175862 Eh/α   predicted    -0.3027911E-02 ( -44.76%)
   displ. norm   :     0.5957385 α      lambda       -0.7139651E-02
   maximum displ.:     0.4185461 α      in ANC's #6, #3, #5, ...

........................................................................
.............................. CYCLE    4 ..............................
........................................................................
   1    -12.5911520 -0.125912E+02  0.483E-01    5.65       0.0  T
   2    -12.5911917 -0.397199E-04  0.275E-01    5.63       1.0  T
   3    -12.5911790  0.127500E-04  0.521E-02    5.62       1.0  T
   4    -12.5912071 -0.281043E-04  0.958E-03    5.61       3.0  T
   5    -12.5912072 -0.113456E-06  0.364E-03    5.62       7.9  T
   6    -12.5912072 -0.174505E-08  0.537E-04    5.62      53.8  T
   7    -12.5912072 -0.822009E-10  0.207E-04    5.62     139.4  T
   8    -12.5912072 -0.259025E-09  0.652E-05    5.62     442.8  T
   9    -12.5912072 -0.118927E-10  0.223E-05    5.62    1292.1  T
     SCC iter.                  ...        0 min,  0.003 sec
     gradient                   ...        0 min,  0.004 sec
 * total energy  :   -12.3455065 Eh     change       -0.7796472E-02 Eh
   gradient norm :     0.0295255 Eh/α   predicted    -0.4836778E-02 ( -37.96%)
   displ. norm   :     0.6016756 α      lambda       -0.9186674E-02
   maximum displ.:     0.3883328 α      in ANC's #3, #6, #5, ...

........................................................................
.............................. CYCLE    5 ..............................
........................................................................
   1    -12.5832825 -0.125833E+02  0.461E-01    5.62       0.0  T
   2    -12.5833157 -0.332300E-04  0.263E-01    5.60       1.0  T
   3    -12.5832953  0.204499E-04  0.575E-02    5.60       1.0  T
   4    -12.5833302 -0.349566E-04  0.885E-03    5.60       3.3  T
   5    -12.5833303 -0.432274E-07  0.214E-03    5.60      13.5  T
   6    -12.5833303 -0.168835E-08  0.540E-04    5.60      53.4  T
   7    -12.5833303 -0.509015E-09  0.269E-04    5.60     107.3  T
   8    -12.5833303 -0.316398E-09  0.586E-05    5.60     492.3  T
     SCC iter.                  ...        0 min,  0.003 sec
     gradient                   ...        0 min,  0.003 sec
 * total energy  :   -12.3552210 Eh     change       -0.9714460E-02 Eh
   gradient norm :     0.0396669 Eh/α   predicted    -0.6256203E-02 ( -35.60%)
   displ. norm   :     0.5806333 α      lambda       -0.1078283E-01
   maximum displ.:     0.3907984 α      in ANC's #3, #6, #5, ...

........................................................................
.............................. CYCLE    6 ..............................
........................................................................
   1    -12.5765527 -0.125766E+02  0.451E-01    5.62       0.0  T
   2    -12.5765887 -0.359845E-04  0.257E-01    5.63       1.0  T
   3    -12.5765599  0.287746E-04  0.651E-02    5.63       1.0  T
   4    -12.5766051 -0.451852E-04  0.945E-03    5.63       3.1  T
   5    -12.5766051 -0.612974E-07  0.214E-03    5.63      13.5  T
   6    -12.5766051 -0.921118E-08  0.974E-04    5.63      29.6  T
   7    -12.5766051 -0.484754E-08  0.298E-04    5.63      96.8  T
   8    -12.5766051 -0.149683E-09  0.647E-05    5.63     445.8  T
     SCC iter.                  ...        0 min,  0.003 sec
     gradient                   ...        0 min,  0.003 sec
 * total energy  :   -12.3662812 Eh     change       -0.1106021E-01 Eh
   gradient norm :     0.0489541 Eh/α   predicted    -0.7209043E-02 ( -34.82%)
   displ. norm   :     0.5381964 α      lambda       -0.1166543E-01
   maximum displ.:     0.3465968 α      in ANC's #3, #6, #4, ...

........................................................................
.............................. CYCLE    7 ..............................
........................................................................
   1    -12.5720959 -0.125721E+02  0.380E-01    5.62       0.0  T
   2    -12.5721170 -0.210841E-04  0.216E-01    5.63       1.0  T
   3    -12.5721094  0.754594E-05  0.392E-02    5.65       1.0  T
   4    -12.5721254 -0.159946E-04  0.798E-03    5.64       3.6  T
   5    -12.5721255 -0.844850E-07  0.323E-03    5.64       8.9  T
   6    -12.5721255  0.216481E-09  0.615E-04    5.64      46.9  T
   7    -12.5721255 -0.227605E-08  0.285E-04    5.64     101.2  T
   8    -12.5721255 -0.177080E-09  0.435E-05    5.64     663.9  T
     SCC iter.                  ...        0 min,  0.003 sec
     gradient                   ...        0 min,  0.003 sec
 * total energy  :   -12.3779327 Eh     change       -0.1165151E-01 Eh
   gradient norm :     0.0527762 Eh/α   predicted    -0.7522203E-02 ( -35.44%)
   displ. norm   :     0.8628787 α      lambda       -0.2641392E-01
   maximum displ.:     0.4941328 α      in ANC's #3, #6, #4, ...

........................................................................
.............................. CYCLE    8 ..............................
........................................................................
   1    -12.5913961 -0.125914E+02  0.653E-01    5.62       0.0  T
   2    -12.5915926 -0.196534E-03  0.373E-01    5.62       1.0  T
   3    -12.5915558  0.367968E-04  0.109E-01    5.67       1.0  T
   4    -12.5916318 -0.759559E-04  0.294E-02    5.65       1.0  T
   5    -12.5916368 -0.505412E-05  0.800E-03    5.66       3.6  T
   6    -12.5916369 -0.314468E-07  0.161E-03    5.66      18.0  T
   7    -12.5916369 -0.103794E-07  0.793E-04    5.66      36.4  T
   8    -12.5916369 -0.134499E-08  0.114E-04    5.66     253.0  T
   9    -12.5916369 -0.286029E-10  0.450E-05    5.66     641.5  T
     SCC iter.                  ...        0 min,  0.003 sec
     gradient                   ...        0 min,  0.004 sec
 * total energy  :   -12.3999232 Eh     change       -0.2199046E-01 Eh
   gradient norm :     0.0515819 Eh/α   predicted    -0.2304029E-01 (   4.77%)
   displ. norm   :     0.9084768 α      lambda       -0.2615745E-01
   maximum displ.:     0.5390924 α      in ANC's #6, #3, #5, ...

........................................................................
.............................. CYCLE    9 ..............................
........................................................................
   1    -12.5745308 -0.125745E+02  0.842E-01    5.59       0.0  T
   2    -12.5747267 -0.195886E-03  0.480E-01    5.60       1.0  T
   3    -12.5745987  0.128065E-03  0.139E-01    5.62       1.0  T
   4    -12.5748121 -0.213421E-03  0.218E-02    5.61       1.3  T
   5    -12.5748125 -0.414803E-06  0.436E-03    5.61       6.6  T
   6    -12.5748125 -0.991632E-08  0.180E-03    5.61      16.1  T
   7    -12.5748125 -0.804177E-08  0.690E-04    5.61      41.8  T
   8    -12.5748125 -0.237773E-08  0.139E-04    5.61     208.2  T
   9    -12.5748125 -0.668798E-11  0.449E-05    5.61     642.7  T
     SCC iter.                  ...        0 min,  0.003 sec
     gradient                   ...        0 min,  0.004 sec
 * total energy  :   -12.4236612 Eh     change       -0.2373802E-01 Eh
   gradient norm :     0.0541167 Eh/α   predicted    -0.2387299E-01 (   0.57%)
   displ. norm   :     0.8325219 α      lambda       -0.3033927E-01
   maximum displ.:     0.3592127 α      in ANC's #6, #5, #10, ...

........................................................................
.............................. CYCLE   10 ..............................
........................................................................
   1    -12.5819211 -0.125819E+02  0.112E+00    5.28       0.0  T
   2    -12.5833541 -0.143307E-02  0.684E-01    5.06       1.0  T
   3    -12.5834709 -0.116730E-03  0.339E-01    5.28       1.0  T
   4    -12.5839452 -0.474290E-03  0.638E-02    5.17       1.0  T
   5    -12.5839591 -0.139483E-04  0.175E-02    5.19       1.6  T
   6    -12.5839596 -0.530127E-06  0.703E-03    5.19       4.1  T
   7    -12.5839599 -0.233080E-06  0.177E-03    5.19      16.3  T
   8    -12.5839599 -0.242323E-08  0.435E-04    5.19      66.4  T
   9    -12.5839599 -0.287731E-09  0.938E-05    5.19     307.7  T
  10    -12.5839599 -0.168008E-10  0.277E-05    5.19    1041.7  T
     SCC iter.                  ...        0 min,  0.004 sec
     gradient                   ...        0 min,  0.004 sec
 * total energy  :   -12.4304938 Eh     change       -0.6832579E-02 Eh
   gradient norm :     0.1504084 Eh/α   predicted    -0.2568360E-01 ( 275.90%)
   displ. norm   :     0.5854611 α      lambda       -0.3829834E-01
   maximum displ.:     0.3282214 α      in ANC's #6, #2, #3, ...

........................................................................
.............................. CYCLE   11 ..............................
........................................................................
   1    -12.5617524 -0.125618E+02  0.606E-01    5.37       0.0  T
   2    -12.5624030 -0.650557E-03  0.360E-01    5.41       1.0  T
   3    -12.5624851 -0.821699E-04  0.190E-01    5.34       1.0  T
   4    -12.5625569 -0.717806E-04  0.594E-02    5.38       1.0  T
   5    -12.5625722 -0.152765E-04  0.140E-02    5.37       2.1  T
   6    -12.5625723 -0.893538E-07  0.225E-03    5.36      12.8  T
   7    -12.5625723 -0.241166E-07  0.106E-03    5.37      27.1  T
   8    -12.5625723 -0.260156E-08  0.299E-04    5.37      96.6  T
   9    -12.5625723 -0.309303E-09  0.544E-05    5.37     530.5  T
     SCC iter.                  ...        0 min,  0.003 sec
     gradient                   ...        0 min,  0.003 sec
 * total energy  :   -12.4512316 Eh     change       -0.2073784E-01 Eh
   gradient norm :     0.0559411 Eh/α   predicted    -0.2571283E-01 (  23.99%)
   displ. norm   :     0.5999911 α      lambda       -0.1863012E-01
   maximum displ.:     0.2941431 α      in ANC's #9, #3, #6, ...

........................................................................
.............................. CYCLE   12 ..............................
........................................................................
   1    -12.5633377 -0.125633E+02  0.771E-01    5.12       0.0  T
   2    -12.5639927 -0.654979E-03  0.443E-01    5.04       1.0  T
   3    -12.5639963 -0.360858E-05  0.220E-01    5.09       1.0  T
   4    -12.5642413 -0.244999E-03  0.604E-02    5.04       1.0  T
   5    -12.5642447 -0.335108E-05  0.181E-02    5.05       1.6  T
   6    -12.5642470 -0.237570E-05  0.549E-03    5.04       5.3  T
   7    -12.5642471 -0.103627E-06  0.192E-03    5.04      15.1  T
   8    -12.5642472 -0.222791E-08  0.237E-04    5.04     121.7  T
   9    -12.5642472 -0.918465E-10  0.946E-05    5.04     305.3  T
     SCC iter.                  ...        0 min,  0.003 sec
     gradient                   ...        0 min,  0.004 sec
 * total energy  :   -12.4493089 Eh     change        0.1922724E-02 Eh
   gradient norm :     0.1424623 Eh/α   predicted    -0.1266838E-01 (-758.88%)
   displ. norm   :     0.4251056 α      lambda       -0.3209645E-01
   maximum displ.:     0.1881652 α      in ANC's #9, #2, #3, ...

........................................................................
.............................. CYCLE   13 ..............................
........................................................................
   1    -12.5700926 -0.125701E+02  0.605E-01    5.26       0.0  T
   2    -12.5705447 -0.452070E-03  0.320E-01    5.27       1.0  T
   3    -12.5705571 -0.124802E-04  0.161E-01    5.23       1.0  T
   4    -12.5706569 -0.997582E-04  0.465E-02    5.26       1.0  T
   5    -12.5706626 -0.565335E-05  0.156E-02    5.26       1.9  T
   6    -12.5706628 -0.231855E-06  0.239E-03    5.26      12.1  T
   7    -12.5706628  0.267853E-08  0.986E-04    5.26      29.3  T
   8    -12.5706628 -0.724485E-08  0.199E-04    5.26     145.3  T
   9    -12.5706628 -0.497682E-10  0.668E-05    5.26     432.2  T
     SCC iter.                  ...        0 min,  0.003 sec
     gradient                   ...        0 min,  0.003 sec
 * total energy  :   -12.4653875 Eh     change       -0.1607861E-01 Eh
   gradient norm :     0.0652125 Eh/α   predicted    -0.1894837E-01 (  17.85%)
   displ. norm   :     0.6611866 α      lambda       -0.2225758E-01
   maximum displ.:     0.2981605 α      in ANC's #5, #9, #6, ...

........................................................................
.............................. CYCLE   14 ..............................
........................................................................
   1    -12.5535086 -0.125535E+02  0.101E+00    5.06       0.0  T
   2    -12.5554565 -0.194784E-02  0.526E-01    5.13       1.0  T
   3    -12.5555497 -0.932624E-04  0.283E-01    5.13       1.0  T
   4    -12.5556609 -0.111127E-03  0.947E-02    5.14       1.0  T
   5    -12.5557094 -0.485199E-04  0.347E-02    5.14       1.0  T
   6    -12.5557110 -0.162651E-05  0.442E-03    5.14       6.5  T
   7    -12.5557111 -0.584970E-07  0.243E-03    5.14      11.9  T
   8    -12.5557111 -0.145256E-07  0.490E-04    5.14      58.9  T
   9    -12.5557111 -0.664409E-09  0.139E-04    5.14     207.0  T
  10    -12.5557111 -0.851230E-11  0.271E-05    5.14    1065.1  T
     SCC iter.                  ...        0 min,  0.004 sec
     gradient                   ...        0 min,  0.003 sec
 * total energy  :   -12.4510279 Eh     change        0.1435955E-01 Eh
   gradient norm :     0.1552211 Eh/α   predicted    -0.1599394E-01 (-211.38%)
   displ. norm   :     0.4011704 α      lambda       -0.4179784E-01
   maximum displ.:     0.2313710 α      in ANC's #9, #2, #10, ...

........................................................................
.............................. CYCLE   15 ..............................
........................................................................
   1    -12.5549186 -0.125549E+02  0.651E-01    5.29       0.0  T
   2    -12.5557606 -0.841917E-03  0.328E-01    5.31       1.0  T
   3    -12.5558202 -0.595917E-04  0.172E-01    5.33       1.0  T
   4    -12.5558765 -0.563915E-04  0.660E-02    5.33       1.0  T
   5    -12.5558881 -0.115674E-04  0.246E-02    5.33       1.2  T
   6    -12.5558890 -0.901764E-06  0.389E-03    5.33       7.4  T
   7    -12.5558891 -0.724850E-07  0.192E-03    5.33      15.0  T
   8    -12.5558891 -0.530440E-08  0.342E-04    5.33      84.4  T
   9    -12.5558891 -0.144102E-09  0.104E-04    5.33     278.3  T
  10    -12.5558891 -0.136122E-10  0.208E-05    5.33    1386.7  T
     SCC iter.                  ...        0 min,  0.004 sec
     gradient                   ...        0 min,  0.003 sec
 * total energy  :   -12.4714691 Eh     change       -0.2044121E-01 Eh
   gradient norm :     0.0873349 Eh/α   predicted    -0.2426233E-01 (  18.69%)
   displ. norm   :     0.7182978 α      lambda       -0.3465058E-01
   maximum displ.:     0.3838789 α      in ANC's #3, #8, #6, ...

........................................................................
.............................. CYCLE   16 ..............................
........................................................................
   1    -12.5694188 -0.125694E+02  0.126E+00    4.99       0.0  T
   2    -12.5734564 -0.403760E-02  0.630E-01    4.77       1.0  T
   3    -12.5745811 -0.112477E-02  0.393E-01    4.90       1.0  T
   4    -12.5749783 -0.397195E-03  0.105E-01    4.82       1.0  T
   5    -12.5750264 -0.480820E-04  0.358E-02    4.85       1.0  T
   6    -12.5750367 -0.102858E-04  0.148E-02    4.84       1.9  T
   7    -12.5750369 -0.205724E-06  0.308E-03    4.84       9.4  T
   8    -12.5750369 -0.431432E-07  0.998E-04    4.84      28.9  T
   9    -12.5750369 -0.570083E-08  0.112E-04    4.84     257.0  T
  10    -12.5750369 -0.103348E-10  0.126E-05    4.84    2290.5  T
     SCC iter.                  ...        0 min,  0.004 sec
     gradient                   ...        0 min,  0.003 sec
 * total energy  :   -12.4328946 Eh     change        0.3857453E-01 Eh
   gradient norm :     0.3458791 Eh/α   predicted    -0.2626428E-01 (-168.09%)
   displ. norm   :     0.3691987 α      lambda       -0.9842306E-01
   maximum displ.:     0.2670995 α      in ANC's #14, #8, #6, ...

........................................................................
.............................. CYCLE   17 ..............................
........................................................................
   1    -12.5671691 -0.125672E+02  0.948E-01    5.06       0.0  T
   2    -12.5694488 -0.227964E-02  0.457E-01    5.19       1.0  T
   3    -12.5698618 -0.413037E-03  0.274E-01    5.14       1.0  T
   4    -12.5700168 -0.155016E-03  0.753E-02    5.18       1.0  T
   5    -12.5700317 -0.149072E-04  0.235E-02    5.17       1.2  T
   6    -12.5700334 -0.165939E-05  0.129E-02    5.17       2.2  T
   7    -12.5700339 -0.515945E-06  0.173E-03    5.17      16.7  T
   8    -12.5700339 -0.728493E-08  0.563E-04    5.17      51.2  T
   9    -12.5700339 -0.410276E-09  0.927E-05    5.17     311.4  T
  10    -12.5700339 -0.583888E-11  0.216E-05    5.17    1339.3  T
     SCC iter.                  ...        0 min,  0.004 sec
     gradient                   ...        0 min,  0.004 sec
 * total energy  :   -12.4694741 Eh     change       -0.3657946E-01 Eh
   gradient norm :     0.1169614 Eh/α   predicted    -0.5591943E-01 (  52.87%)
   displ. norm   :     0.6439111 α      lambda       -0.4454268E-01
   maximum displ.:     0.2789013 α      in ANC's #14, #2, #3, ...

........................................................................
.............................. CYCLE   18 ..............................
........................................................................
   1    -12.5480180 -0.125480E+02  0.974E-01    5.22       0.0  T
   2    -12.5488111 -0.793113E-03  0.510E-01    5.26       1.0  T
   3    -12.5488067  0.441906E-05  0.213E-01    5.22       1.0  T
   4    -12.5490047 -0.197985E-03  0.530E-02    5.25       1.0  T
   5    -12.5490109 -0.624453E-05  0.207E-02    5.25       1.4  T
   6    -12.5490112 -0.258867E-06  0.830E-03    5.25       3.5  T
   7    -12.5490117 -0.492781E-06  0.185E-03    5.25      15.6  T
   8    -12.5490117 -0.288247E-08  0.281E-04    5.25     102.8  T
   9    -12.5490117 -0.144205E-09  0.107E-04    5.25     268.9  T
     SCC iter.                  ...        0 min,  0.003 sec
     gradient                   ...        0 min,  0.003 sec
 * total energy  :   -12.4645262 Eh     change        0.4947826E-02 Eh
   gradient norm :     0.1253782 Eh/α   predicted    -0.3150552E-01 (-736.75%)
   displ. norm   :     0.3893476 α      lambda       -0.3132258E-01
   maximum displ.:     0.2055971 α      in ANC's #2, #8, #14, ...

........................................................................
.............................. CYCLE   19 ..............................
........................................................................
   1    -12.5652365 -0.125652E+02  0.587E-01    5.32       0.0  T
   2    -12.5655713 -0.334828E-03  0.322E-01    5.30       1.0  T
   3    -12.5655724 -0.103398E-05  0.130E-01    5.32       1.0  T
   4    -12.5656269 -0.545239E-04  0.375E-02    5.30       1.0  T
   5    -12.5656337 -0.685228E-05  0.140E-02    5.31       2.1  T
   6    -12.5656339 -0.125638E-06  0.198E-03    5.31      14.6  T
   7    -12.5656339 -0.842823E-08  0.108E-03    5.31      26.7  T
   8    -12.5656339 -0.550162E-08  0.318E-04    5.31      90.9  T
   9    -12.5656339 -0.709282E-10  0.722E-05    5.31     399.6  T
  10    -12.5656339 -0.246381E-11  0.135E-05    5.31    2144.2  T
     SCC iter.                  ...        0 min,  0.004 sec
     gradient                   ...        0 min,  0.003 sec
 * total energy  :   -12.4832393 Eh     change       -0.1871303E-01 Eh
   gradient norm :     0.0486590 Eh/α   predicted    -0.1803541E-01 (  -3.62%)
   displ. norm   :     0.4632960 α      lambda       -0.1037380E-01
   maximum displ.:     0.2045787 α      in ANC's #4, #17, #21, ...

........................................................................
.............................. CYCLE   20 ..............................
........................................................................
   1    -12.5877785 -0.125878E+02  0.502E-01    5.34       0.0  T
   2    -12.5881428 -0.364312E-03  0.273E-01    5.34       1.0  T
   3    -12.5881626 -0.197371E-04  0.129E-01    5.36       1.0  T
   4    -12.5882094 -0.468171E-04  0.338E-02    5.36       1.0  T
   5    -12.5882148 -0.543500E-05  0.933E-03    5.36       3.1  T
   6    -12.5882148 -0.206270E-07  0.131E-03    5.36      22.0  T
   7    -12.5882149 -0.224159E-08  0.584E-04    5.36      49.4  T
   8    -12.5882149 -0.134215E-08  0.163E-04    5.36     176.7  T
   9    -12.5882149 -0.805080E-10  0.461E-05    5.36     625.7  T
     SCC iter.                  ...        0 min,  0.003 sec
     gradient                   ...        0 min,  0.003 sec
 * total energy  :   -12.4844641 Eh     change       -0.1224798E-02 Eh
   gradient norm :     0.0825475 Eh/α   predicted    -0.6300234E-02 ( 414.39%)
   displ. norm   :     0.5915171 α      lambda       -0.1354042E-01
   maximum displ.:     0.2848505 α      in ANC's #5, #6, #3, ...
 * RMSD in coord.:     2.2865568 α      energy gain  -0.1248446E+02 Eh

generating ANC from model Hessian ...
Using Lindh-Hessian (1995)
 Shifting diagonal of input Hessian by   1.379901256461212E-002
 Lowest  eigenvalues of input Hessian
    0.010000   -0.000000   -0.000000   -0.000000    0.000000    0.000000
    0.000000    0.013803    0.014155    0.014491    0.015008    0.017736
    0.026274    0.028818    0.034675    0.042551    0.052980    0.055146
 Highest eigenvalues
    0.829736    0.868025    1.403173    1.459289    1.629944    1.733379
 

........................................................................
.............................. CYCLE   21 ..............................
........................................................................
   1    -12.5494620 -0.125495E+02  0.649E-01    5.10       0.0  T
   2    -12.5501580 -0.696035E-03  0.372E-01    5.02       1.0  T
   3    -12.5502359 -0.779089E-04  0.190E-01    5.06       1.0  T
   4    -12.5503493 -0.113337E-03  0.400E-02    5.03       1.0  T
   5    -12.5503576 -0.829708E-05  0.945E-03    5.03       3.1  T
   6    -12.5503576 -0.216293E-07  0.240E-03    5.03      12.1  T
   7    -12.5503576 -0.151200E-07  0.116E-03    5.03      24.9  T
   8    -12.5503576 -0.597295E-08  0.330E-04    5.03      87.5  T
   9    -12.5503576 -0.230056E-09  0.667E-05    5.03     432.6  T
  10    -12.5503576 -0.352784E-11  0.182E-05    5.03    1585.3  T
  11    -12.5503576 -0.252243E-11  0.362E-06    5.03    7974.9  T
     SCC iter.                  ...        0 min,  0.004 sec
     gradient                   ...        0 min,  0.004 sec
 * total energy  :   -12.4887272 Eh     change       -0.4263121E-02 Eh
   gradient norm :     0.0662853 Eh/α   predicted     0.0000000E+00 (-100.00%)
   displ. norm   :     0.5350042 α      lambda       -0.1559825E-01
   maximum displ.:     0.2942617 α      in ANC's #1, #5, #2, ...

........................................................................
.............................. CYCLE   22 ..............................
........................................................................
   1    -12.5673690 -0.125674E+02  0.709E-01    5.17       0.0  T
   2    -12.5675263 -0.157362E-03  0.400E-01    5.20       1.0  T
   3    -12.5674648  0.615877E-04  0.108E-01    5.16       1.0  T
   4    -12.5675912 -0.126418E-03  0.172E-02    5.19       1.7  T
   5    -12.5675917 -0.541477E-06  0.549E-03    5.19       5.3  T
   6    -12.5675918 -0.356453E-07  0.215E-03    5.19      13.4  T
   7    -12.5675918 -0.342535E-07  0.589E-04    5.19      49.0  T
   8    -12.5675918 -0.257955E-09  0.813E-05    5.19     355.1  T
   9    -12.5675918 -0.762768E-11  0.332E-05    5.19     869.0  T
     SCC iter.                  ...        0 min,  0.003 sec
     gradient                   ...        0 min,  0.004 sec
 * total energy  :   -12.4994361 Eh     change       -0.1070887E-01 Eh
   gradient norm :     0.0316840 Eh/α   predicted    -0.1003144E-01 (  -6.33%)
   displ. norm   :     0.5417705 α      lambda       -0.8502198E-02
   maximum displ.:     0.3211634 α      in ANC's #5, #6, #7, ...

........................................................................
.............................. CYCLE   23 ..............................
........................................................................
   1    -12.5716564 -0.125717E+02  0.690E-01    5.28       0.0  T
   2    -12.5717805 -0.124136E-03  0.384E-01    5.30       1.0  T
   3    -12.5717685  0.119809E-04  0.775E-02    5.28       1.0  T
   4    -12.5718289 -0.603379E-04  0.160E-02    5.30       1.8  T
   5    -12.5718293 -0.449199E-06  0.583E-03    5.29       5.0  T
   6    -12.5718293 -0.235774E-08  0.193E-03    5.29      15.0  T
   7    -12.5718294 -0.352533E-07  0.424E-04    5.29      68.1  T
   8    -12.5718294 -0.819131E-10  0.972E-05    5.29     297.1  T
   9    -12.5718294 -0.109797E-10  0.269E-05    5.29    1072.8  T
     SCC iter.                  ...        0 min,  0.003 sec
     gradient                   ...        0 min,  0.004 sec
 * total energy  :   -12.5035833 Eh     change       -0.4147245E-02 Eh
   gradient norm :     0.0393454 Eh/α   predicted    -0.5498856E-02 (  32.59%)
   displ. norm   :     0.4271361 α      lambda       -0.5157323E-02
   maximum displ.:     0.2891327 α      in ANC's #1, #5, #10, ...

........................................................................
.............................. CYCLE   24 ..............................
........................................................................
   1    -12.5766165 -0.125766E+02  0.491E-01    5.30       0.0  T
   2    -12.5766604 -0.438932E-04  0.276E-01    5.29       1.0  T
   3    -12.5766617 -0.126442E-05  0.406E-02    5.26       1.0  T
   4    -12.5766773 -0.156620E-04  0.131E-02    5.27       2.2  T
   5    -12.5766775 -0.139688E-06  0.336E-03    5.27       8.6  T
   6    -12.5766775 -0.127279E-07  0.845E-04    5.27      34.2  T
   7    -12.5766775 -0.372108E-09  0.217E-04    5.27     132.8  T
   8    -12.5766775 -0.333602E-09  0.687E-05    5.27     420.1  T
     SCC iter.                  ...        0 min,  0.003 sec
     gradient                   ...        0 min,  0.003 sec
 * total energy  :   -12.5065701 Eh     change       -0.2986783E-02 Eh
   gradient norm :     0.0354144 Eh/α   predicted    -0.3049122E-02 (   2.09%)
   displ. norm   :     0.3013966 α      lambda       -0.2864319E-02
   maximum displ.:     0.1759561 α      in ANC's #5, #6, #3, ...

........................................................................
.............................. CYCLE   25 ..............................
........................................................................
   1    -12.5755277 -0.125755E+02  0.394E-01    5.22       0.0  T
   2    -12.5756004 -0.726863E-04  0.215E-01    5.18       1.0  T
   3    -12.5755866  0.138247E-04  0.696E-02    5.19       1.0  T
   4    -12.5756184 -0.318299E-04  0.112E-02    5.18       2.6  T
   5    -12.5756188 -0.456162E-06  0.484E-03    5.18       6.0  T
   6    -12.5756188 -0.760274E-08  0.527E-04    5.18      54.8  T
   7    -12.5756188 -0.163082E-09  0.235E-04    5.18     122.7  T
   8    -12.5756188 -0.228512E-09  0.106E-04    5.18     271.1  T
     SCC iter.                  ...        0 min,  0.003 sec
     gradient                   ...        0 min,  0.003 sec
 * total energy  :   -12.5079268 Eh     change       -0.1356677E-02 Eh
   gradient norm :     0.0183611 Eh/α   predicted    -0.1562258E-02 (  15.15%)
   displ. norm   :     0.3267408 α      lambda       -0.2244660E-02
   maximum displ.:     0.2059967 α      in ANC's #7, #6, #1, ...

........................................................................
.............................. CYCLE   26 ..............................
........................................................................
   1    -12.5656370 -0.125656E+02  0.508E-01    5.05       0.0  T
   2    -12.5656961 -0.590478E-04  0.286E-01    5.02       1.0  T
   3    -12.5656900  0.609947E-05  0.508E-02    5.03       1.0  T
   4    -12.5657187 -0.287654E-04  0.112E-02    5.02       2.6  T
   5    -12.5657190 -0.211941E-06  0.410E-03    5.02       7.0  T
   6    -12.5657190 -0.107525E-07  0.167E-03    5.02      17.3  T
   7    -12.5657190 -0.196690E-07  0.420E-04    5.02      68.8  T
   8    -12.5657190 -0.170060E-09  0.557E-05    5.02     518.4  T
   9    -12.5657190 -0.278710E-11  0.231E-05    5.02    1251.8  T
     SCC iter.                  ...        0 min,  0.003 sec
     gradient                   ...        0 min,  0.004 sec
 * total energy  :   -12.5084468 Eh     change       -0.5200019E-03 Eh
   gradient norm :     0.0330246 Eh/α   predicted    -0.1242148E-02 ( 138.87%)
   displ. norm   :     0.2114718 α      lambda       -0.2801137E-02
   maximum displ.:     0.1084522 α      in ANC's #7, #5, #15, ...

........................................................................
.............................. CYCLE   27 ..............................
........................................................................
   1    -12.5727130 -0.125727E+02  0.325E-01    4.99       0.0  T
   2    -12.5727790 -0.659823E-04  0.178E-01    4.95       1.0  T
   3    -12.5727736  0.538180E-05  0.617E-02    4.96       1.0  T
   4    -12.5727973 -0.236270E-04  0.132E-02    4.94       2.2  T
   5    -12.5727976 -0.370387E-06  0.524E-03    4.95       5.5  T
   6    -12.5727976 -0.544636E-08  0.180E-03    4.95      16.0  T
   7    -12.5727977 -0.250842E-07  0.514E-04    4.95      56.2  T
   8    -12.5727977 -0.338169E-09  0.105E-04    4.95     273.9  T
   9    -12.5727977 -0.226805E-10  0.268E-05    4.95    1076.3  T
     SCC iter.                  ...        0 min,  0.003 sec
     gradient                   ...        0 min,  0.004 sec
 * total energy  :   -12.5080343 Eh     change        0.4125067E-03 Eh
   gradient norm :     0.0484180 Eh/α   predicted    -0.1463206E-02 (-454.71%)
   displ. norm   :     0.1697153 α      lambda       -0.3330194E-02
   maximum displ.:     0.1023103 α      in ANC's #7, #10, #1, ...

........................................................................
.............................. CYCLE   28 ..............................
........................................................................
   1    -12.5774875 -0.125775E+02  0.295E-01    5.01       0.0  T
   2    -12.5775095 -0.220051E-04  0.165E-01    4.99       1.0  T
   3    -12.5775166 -0.710198E-05  0.184E-02    4.99       1.6  T
   4    -12.5775168 -0.147358E-06  0.940E-03    4.99       3.1  T
   5    -12.5775172 -0.377509E-06  0.312E-03    4.99       9.3  T
   6    -12.5775172 -0.175586E-07  0.835E-04    4.99      34.6  T
   7    -12.5775172 -0.168168E-09  0.391E-04    4.99      73.8  T
   8    -12.5775172 -0.913184E-09  0.549E-05    4.99     525.4  T
   9    -12.5775172 -0.126477E-11  0.172E-05    4.99    1678.1  T
     SCC iter.                  ...        0 min,  0.003 sec
     gradient                   ...        0 min,  0.003 sec
 * total energy  :   -12.5090795 Eh     change       -0.1045241E-02 Eh
   gradient norm :     0.0184448 Eh/α   predicted    -0.1713054E-02 (  63.89%)
   displ. norm   :     0.2309349 α      lambda       -0.1694510E-02
   maximum displ.:     0.1383099 α      in ANC's #6, #1, #2, ...

........................................................................
.............................. CYCLE   29 ..............................
........................................................................
   1    -12.5646865 -0.125647E+02  0.251E-01    4.95       0.0  T
   2    -12.5647401 -0.536128E-04  0.138E-01    5.00       1.0  T
   3    -12.5647352  0.494154E-05  0.598E-02    4.98       1.0  T
   4    -12.5647530 -0.178372E-04  0.127E-02    4.99       2.3  T
   5    -12.5647536 -0.572790E-06  0.434E-03    4.99       6.7  T
   6    -12.5647536 -0.397296E-08  0.177E-03    4.99      16.3  T
   7    -12.5647536 -0.219304E-07  0.373E-04    4.99      77.3  T
   8    -12.5647536 -0.141723E-09  0.110E-04    4.99     263.4  T
   9    -12.5647536 -0.186855E-10  0.184E-05    4.99    1564.7  T
     SCC iter.                  ...        0 min,  0.003 sec
     gradient                   ...        0 min,  0.004 sec
 * total energy  :   -12.5088960 Eh     change        0.1834565E-03 Eh
   gradient norm :     0.0247277 Eh/α   predicted    -0.8924390E-03 (-586.46%)
   displ. norm   :     0.1157829 α      lambda       -0.1467479E-02
   maximum displ.:     0.0543793 α      in ANC's #6, #5, #1, ...

........................................................................
.............................. CYCLE   30 ..............................
........................................................................
   1    -12.5724517 -0.125725E+02  0.152E-01    4.99       0.0  T
   2    -12.5724823 -0.306306E-04  0.810E-02    4.96       1.0  T
   3    -12.5724837 -0.139132E-05  0.413E-02    4.97       1.0  T
   4    -12.5724900 -0.628897E-05  0.784E-03    4.96       3.7  T
   5    -12.5724902 -0.224046E-06  0.277E-03    4.96      10.4  T
   6    -12.5724902 -0.943878E-08  0.137E-03    4.96      21.1  T
   7    -12.5724902 -0.808185E-08  0.216E-04    4.96     133.5  T
   8    -12.5724902 -0.441105E-10  0.754E-05    4.96     383.0  T
     SCC iter.                  ...        0 min,  0.003 sec
     gradient                   ...        0 min,  0.004 sec
 * total energy  :   -12.5095814 Eh     change       -0.6853316E-03 Eh
   gradient norm :     0.0088661 Eh/α   predicted    -0.7435770E-03 (   8.50%)
   displ. norm   :     0.1015643 α      lambda       -0.2868763E-03
   maximum displ.:     0.0539124 α      in ANC's #8, #2, #6, ...

........................................................................
.............................. CYCLE   31 ..............................
........................................................................
   1    -12.5703461 -0.125703E+02  0.162E-01    4.93       0.0  T
   2    -12.5703567 -0.106127E-04  0.892E-02    4.91       1.0  T
   3    -12.5703573 -0.633712E-06  0.156E-02    4.90       1.9  T
   4    -12.5703589 -0.152858E-05  0.507E-03    4.90       5.7  T
   5    -12.5703590 -0.126641E-06  0.215E-03    4.90      13.4  T
   6    -12.5703590 -0.238973E-08  0.327E-04    4.90      88.1  T
   7    -12.5703590 -0.273381E-11  0.158E-04    4.90     182.6  T
   8    -12.5703590 -0.192527E-09  0.256E-05    4.90    1126.5  T
   9    -12.5703590 -0.436984E-12  0.923E-06    4.90    3127.6  T
     SCC iter.                  ...        0 min,  0.003 sec
     gradient                   ...        0 min,  0.004 sec
 * total energy  :   -12.5095287 Eh     change        0.5272399E-04 Eh
   gradient norm :     0.0119401 Eh/α   predicted    -0.1449181E-03 (-374.86%)
   displ. norm   :     0.0528475 α      lambda       -0.2949621E-03
   maximum displ.:     0.0322935 α      in ANC's #2, #8, #4, ...

........................................................................
.............................. CYCLE   32 ..............................
........................................................................
   1    -12.5715459 -0.125715E+02  0.737E-02    4.91       0.0  T
   2    -12.5715475 -0.160411E-05  0.410E-02    4.92       1.0  T
   3    -12.5715479 -0.349937E-06  0.473E-03    4.92       6.1  T
   4    -12.5715479 -0.238592E-07  0.250E-03    4.92      11.5  T
   5    -12.5715479 -0.271767E-07  0.114E-03    4.92      25.4  T
   6    -12.5715479 -0.162283E-08  0.198E-04    4.92     146.1  T
   7    -12.5715479 -0.162039E-10  0.375E-05    4.92     770.8  T
   8    -12.5715479 -0.757616E-11  0.155E-05    4.92    1865.5  T
     SCC iter.                  ...        0 min,  0.003 sec
     gradient                   ...        0 min,  0.004 sec
 * total energy  :   -12.5096830 Eh     change       -0.1543017E-03 Eh
   gradient norm :     0.0023583 Eh/α   predicted    -0.1478936E-03 (  -4.15%)
   displ. norm   :     0.0493678 α      lambda       -0.5687322E-04
   maximum displ.:     0.0243951 α      in ANC's #2, #9, #1, ...

........................................................................
.............................. CYCLE   33 ..............................
........................................................................
   1    -12.5707252 -0.125707E+02  0.639E-02    4.91       0.0  T
   2    -12.5707258 -0.603448E-06  0.363E-02    4.90       1.0  T
   3    -12.5707258 -0.219708E-07  0.506E-03    4.90       5.7  T
   4    -12.5707260 -0.220079E-06  0.181E-03    4.90      15.9  T
   5    -12.5707260 -0.204342E-08  0.431E-04    4.90      67.0  T
   6    -12.5707260 -0.914149E-10  0.142E-04    4.90     203.1  T
   7    -12.5707260 -0.114744E-09  0.597E-05    4.90     483.2  T
   8    -12.5707260 -0.452260E-11  0.804E-06    4.90    3588.8  T
   9    -12.5707260 -0.728306E-13  0.323E-06    4.90    8942.4  T
     SCC iter.                  ...        0 min,  0.003 sec
     gradient                   ...        0 min,  0.004 sec
 * total energy  :   -12.5096839 Eh     change       -0.9226112E-06 Eh
   gradient norm :     0.0042080 Eh/α   predicted    -0.2850480E-04 (2989.58%)
   displ. norm   :     0.0262193 α      lambda       -0.5392720E-04
   maximum displ.:     0.0124525 α      in ANC's #9, #6, #7, ...

........................................................................
.............................. CYCLE   34 ..............................
........................................................................
   1    -12.5707146 -0.125707E+02  0.377E-02    4.90       0.0  T
   2    -12.5707155 -0.885456E-06  0.206E-02    4.89       1.4  T
   3    -12.5707154  0.114323E-06  0.718E-03    4.89       4.0  T
   4    -12.5707157 -0.319600E-06  0.146E-03    4.89      19.8  T
   5    -12.5707157 -0.611244E-08  0.628E-04    4.89      45.9  T
   6    -12.5707157 -0.643645E-10  0.191E-04    4.89     150.9  T
   7    -12.5707157 -0.377710E-09  0.547E-05    4.89     527.5  T
   8    -12.5707157 -0.169464E-11  0.133E-05    4.89    2177.4  T
     SCC iter.                  ...        0 min,  0.003 sec
     gradient                   ...        0 min,  0.004 sec
 * total energy  :   -12.5097164 Eh     change       -0.3255550E-04 Eh
   gradient norm :     0.0017941 Eh/α   predicted    -0.2698096E-04 ( -17.12%)
   displ. norm   :     0.0259677 α      lambda       -0.9452009E-05
   maximum displ.:     0.0135723 α      in ANC's #6, #21, #7, ...

........................................................................
.............................. CYCLE   35 ..............................
........................................................................
   1    -12.5705405 -0.125705E+02  0.393E-02    4.88       0.0  T
   2    -12.5705415 -0.100021E-05  0.215E-02    4.87       1.3  T
   3    -12.5705414  0.102012E-06  0.698E-03    4.87       4.1  T
   4    -12.5705418 -0.318056E-06  0.132E-03    4.87      21.9  T
   5    -12.5705418 -0.736055E-08  0.525E-04    4.87      55.0  T
   6    -12.5705418 -0.281339E-10  0.782E-05    4.87     369.2  T
   7    -12.5705418 -0.133316E-10  0.394E-05    4.87     732.8  T
   8    -12.5705418 -0.939160E-11  0.846E-06    4.87    3410.6  T
     SCC iter.                  ...        0 min,  0.003 sec
     gradient                   ...        0 min,  0.004 sec
 * total energy  :   -12.5097233 Eh     change       -0.6839433E-05 Eh
   gradient norm :     0.0008692 Eh/α   predicted    -0.4728459E-05 ( -30.86%)
   displ. norm   :     0.0122797 α      lambda       -0.2575314E-05
   maximum displ.:     0.0069586 α      in ANC's #7, #2, #4, ...

........................................................................
.............................. CYCLE   36 ..............................
........................................................................
   1    -12.5701040 -0.125701E+02  0.195E-02    4.87       0.0  T
   2    -12.5701040 -0.935637E-07  0.110E-02    4.86       2.6  T
   3    -12.5701040  0.126740E-07  0.202E-03    4.86      14.3  T
   4    -12.5701041 -0.444963E-07  0.475E-04    4.86      60.8  T
   5    -12.5701041 -0.401375E-09  0.207E-04    4.86     139.2  T
   6    -12.5701041  0.118963E-10  0.652E-05    4.86     442.9  T
   7    -12.5701041 -0.355165E-10  0.208E-05    4.86    1390.7  T
   8    -12.5701041 -0.790479E-12  0.212E-06    4.86   13607.9  T
     SCC iter.                  ...        0 min,  0.003 sec
     gradient                   ...        0 min,  0.004 sec
 * total energy  :   -12.5097250 Eh     change       -0.1747303E-05 Eh
   gradient norm :     0.0009039 Eh/α   predicted    -0.1286580E-05 ( -26.37%)
   displ. norm   :     0.0156247 α      lambda       -0.2142824E-05
   maximum displ.:     0.0078875 α      in ANC's #4, #6, #2, ...

........................................................................
.............................. CYCLE   37 ..............................
........................................................................
   1    -12.5702015 -0.125702E+02  0.207E-02    4.87       0.0  T
   2    -12.5702016 -0.485126E-07  0.117E-02    4.87       2.5  T
   3    -12.5702016 -0.138401E-07  0.953E-04    4.87      30.3  T
   4    -12.5702016 -0.625191E-08  0.395E-04    4.87      73.0  T
   5    -12.5702016 -0.117829E-09  0.142E-04    4.87     202.9  T
   6    -12.5702016 -0.392841E-10  0.375E-05    4.87     770.7  T
   7    -12.5702016 -0.119034E-10  0.111E-05    4.87    2597.5  T
     SCC iter.                  ...        0 min,  0.003 sec
     gradient                   ...        0 min,  0.004 sec
 * total energy  :   -12.5097267 Eh     change       -0.1664811E-05 Eh
   gradient norm :     0.0005023 Eh/α   predicted    -0.1070631E-05 ( -35.69%)
   displ. norm   :     0.0089820 α      lambda       -0.9506098E-06
   maximum displ.:     0.0050037 α      in ANC's #4, #6, #1, ...

........................................................................
.............................. CYCLE   38 ..............................
........................................................................
   1    -12.5701840 -0.125702E+02  0.115E-02    4.87       0.0  T
   2    -12.5701841 -0.149288E-07  0.653E-03    4.87       4.4  T
   3    -12.5701841 -0.288450E-08  0.615E-04    4.87      46.9  T
   4    -12.5701841 -0.385789E-08  0.213E-04    4.87     135.4  T
   5    -12.5701841 -0.222347E-10  0.310E-05    4.87     932.1  T
   6    -12.5701841 -0.122746E-11  0.114E-05    4.87    2533.5  T
     SCC iter.                  ...        0 min,  0.002 sec
     gradient                   ...        0 min,  0.004 sec
 * total energy  :   -12.5097276 Eh     change       -0.9175292E-06 Eh
   gradient norm :     0.0002352 Eh/α   predicted    -0.4768483E-06 ( -48.03%)
   displ. norm   :     0.0050984 α      lambda       -0.3059760E-06
   maximum displ.:     0.0025523 α      in ANC's #2, #4, #7, ...

........................................................................
.............................. CYCLE   39 ..............................
........................................................................
   1    -12.5701701 -0.125702E+02  0.761E-03    4.87       0.0  T
   2    -12.5701702 -0.137433E-07  0.425E-03    4.87       6.8  T
   3    -12.5701702  0.219787E-08  0.816E-04    4.87      35.4  T
   4    -12.5701702 -0.708247E-08  0.162E-04    4.87     178.5  T
   5    -12.5701702 -0.584581E-10  0.699E-05    4.87     413.1  T
   6    -12.5701702 -0.236255E-12  0.272E-05    4.87    1061.7  T
   7    -12.5701702 -0.594902E-11  0.482E-06    4.87    5986.5  T
     SCC iter.                  ...        0 min,  0.003 sec
     gradient                   ...        0 min,  0.004 sec
 * total energy  :   -12.5097279 Eh     change       -0.2690006E-06 Eh
   gradient norm :     0.0001120 Eh/α   predicted    -0.1532372E-06 ( -43.03%)
   displ. norm   :     0.0025402 α      lambda       -0.8408302E-07
   maximum displ.:     0.0011857 α      in ANC's #2, #5, #10, ...

........................................................................
.............................. CYCLE   40 ..............................
........................................................................
   1    -12.5701629 -0.125702E+02  0.405E-03    4.87       0.0  T
   2    -12.5701629 -0.412597E-08  0.225E-03    4.87      12.8  T
   3    -12.5701629 -0.276884E-09  0.321E-04    4.86      89.9  T
   4    -12.5701629 -0.831099E-09  0.104E-04    4.86     278.0  T
   5    -12.5701629 -0.426983E-10  0.509E-05    4.86     567.2  T
   6    -12.5701629 -0.199663E-11  0.138E-05    4.86    2091.0  T
   7    -12.5701629 -0.161293E-11  0.440E-06    4.86    6568.0  T
     SCC iter.                  ...        0 min,  0.002 sec
     gradient                   ...        0 min,  0.004 sec
 * total energy  :   -12.5097279 Eh     change       -0.4233907E-07 Eh
   gradient norm :     0.0000993 Eh/α   predicted    -0.3999382E-07 (  -5.54%)
   displ. norm   :     0.0011050 α      lambda       -0.2684607E-07
   maximum displ.:     0.0007421 α      in ANC's #4, #5, #1, ...

   *** GEOMETRY OPTIMIZATION CONVERGED AFTER 40 ITERATIONS ***

------------------------------------------------------------------------
 total energy gain :         -12.5097279 Eh    -7849.9728 kcal/mol
 total RMSD        :           2.4859126 α         1.3155 Å
------------------------------------------------------------------------

 ANCopt (total)                0 d,  0 h,  0 min,  0.734 sec
 optimizer setup                ...        0 min,  0.001 sec (  0.179%)
 model hessian                  ...        0 min,  0.005 sec (  0.732%)
 ANC generation                 ...        0 min,  0.001 sec (  0.161%)
 coordinate transformation      ...        0 min,  0.000 sec (  0.041%)
 single point calculation       ...        0 min,  0.364 sec ( 49.629%)
 optimization log               ...        0 min,  0.065 sec (  8.916%)
 hessian update                 ...        0 min,  0.000 sec (  0.047%)
 rational function              ...        0 min,  0.005 sec (  0.614%)

================
 final structure:
================
$coord
    4.65566950114814    1.15173937997804    0.84637747203430      N 
    4.62356086321423   -1.34516612993477    1.63639098519587      B 
   -0.70020736973995   -2.28437844304027   -2.15464389833328      N 
   -0.17423165932722   -3.28912850534934    0.23584330119376      B 
   -0.01007313068595   -2.92090830242642   -3.80243729811304      H 
    6.02076103503020   -1.90514913186395    3.25726038388423      H 
    3.40995447911135   -2.98856588891164    0.62434403327166      H 
    3.35744116563973    2.01664766253667   -0.24432358379742      H 
    6.10342835082735    2.32110429589563    1.25006088910653      H 
   -1.74306490831701   -0.71801929445822   -2.39975597394469      H 
   -0.26184221256086   -1.90213328273734    2.02610459699469      H 
    0.09231813025902   -5.47160950099079    0.52171896667537      H 
$end
 
 Bond Distances (Angstroems)
 ---------------------------
N1-B2=1.3860         N1-H8=1.0073         N1-H9=1.0077         B2-N1=1.3860         B2-H6=1.1705         B2-H7=1.2065         
N3-B4=1.4001         N3-H5=1.0036         N3-H10=1.0042        B4-N3=1.4001         B4-H11=1.1993        B4-H12=1.1733        
H5-N3=1.0036         H6-B2=1.1705         H7-B2=1.2065         H8-N1=1.0073         H9-N1=1.0077         H10-N3=1.0042        
H11-B4=1.1993        H12-B4=1.1733        
 B  H  Rav=1.1874 sigma=0.0157  Rmin=1.1705  Rmax=1.2065     4
 N  H  Rav=1.0057 sigma=0.0018  Rmin=1.0036  Rmax=1.0077     4
 N  B  Rav=1.3931 sigma=0.0071  Rmin=1.3860  Rmax=1.4001     2
 
 selected bond angles (degree)
 --------------------
H8-N1-B2=126.70                H9-N1-B2=122.06                H9-N1-H8=111.16                H6-B2-N1=117.04                
H7-B2-N1=124.04                H7-B2-H6=118.62                H5-N3-B4=125.82                H10-N3-B4=122.64               
H10-N3-H5=111.39               H11-B4-N3=118.27               H12-B4-N3=120.94               H12-B4-H11=120.34              
 
 selected dihedral angles (degree)
 ---------------------------------
H6-B2-N1-H8=193.62            H6-B2-N1-H9= 17.12            H7-B2-N1-H8= 19.95            H7-B2-N1-H9=203.44            
H11-B4-N3-H5=151.67           H11-B4-N3-H10=336.44          H12-B4-N3-H5=324.05           H12-B4-N3-H10=148.82          
 
 CMA Distance (Angstroems)
 ---------------------------
R(CMA):  3.3089

========================================================================
 FINAL SINGLEPOINT CALCULATION ON OPTIMIZED GEOMETRY
========================================================================

          ...................................................
          :                      SETUP                      :
          :.................................................:
          :  # basis functions                  24          :
          :  # atomic orbitals                  24          :
          :  # shells                           16          :
          :  # electrons                        24          :
          :  max. iterations                    50          :
          :  Hamiltonian                  GFN2-xTB          :
          :  restarted?                      false          :
          :  GBSA solvation                  false          :
          :  PC potential                    false          :
          :  electronic temp.          300.0000000     K    :
          :  accuracy                    1.0000000          :
          :  -> integral cutoff          0.2500000E+02      :
          :  -> integral neglect         0.1000000E-07      :
          :  -> SCF convergence          0.1000000E-05 Eh   :
          :  -> wf. convergence          0.1000000E-03 e    :
          :  Broyden damping             0.4000000          :
          ...................................................

 iter      E             dE          RMSdq      gap      omega  full diag
   1    -12.5701629 -0.125702E+02  0.905E-07    4.86       0.0  T
   2    -12.5701629 -0.355271E-14  0.521E-07    4.86   55412.7  T
   3    -12.5701629  0.177636E-14  0.167E-07    4.86  100000.0  T

   *** convergence criteria satisfied after 3 iterations ***

         #    Occupation            Energy/Eh            Energy/eV
      -------------------------------------------------------------
         1        2.0000           -0.5991510             -16.3037
       ...           ...                  ...                  ...
         6        2.0000           -0.4954748             -13.4826
         7        2.0000           -0.4471857             -12.1685
         8        2.0000           -0.4280493             -11.6478
         9        2.0000           -0.4216906             -11.4748
        10        2.0000           -0.4118521             -11.2071
        11        2.0000           -0.3839705             -10.4484
        12        2.0000           -0.3669559              -9.9854 (HOMO)
        13                         -0.1881767              -5.1205 (LUMO)
        14                         -0.1585864              -4.3154
        15                          0.0562825               1.5315
        16                          0.0740736               2.0156
        17                          0.1850440               5.0353
       ...                                ...                  ...
        24                          0.5072809              13.8038
      -------------------------------------------------------------
                  HL-Gap            0.1787792 Eh            4.8648 eV
             Fermi-level           -0.2775663 Eh           -7.5530 eV

 SCC (total)                   0 d,  0 h,  0 min,  0.076 sec
 SCC setup                      ...        0 min,  0.000 sec (  0.285%)
 Dispersion                     ...        0 min,  0.000 sec (  0.106%)
 integral evaluation            ...        0 min,  0.002 sec (  2.868%)
 zeroth order Hamiltonian       ...        0 min,  0.000 sec (  0.048%)
 iterations                     ...        0 min,  0.001 sec (  1.698%)
 molecular gradient             ...        0 min,  0.003 sec (  4.560%)
 printout                       ...        0 min,  0.068 sec ( 90.393%)

         :::::::::::::::::::::::::::::::::::::::::::::::::::::
         ::                     SUMMARY                     ::
         :::::::::::::::::::::::::::::::::::::::::::::::::::::
         :: total energy              -12.509727910290 Eh   ::
         :: gradient norm               0.000099414634 Eh/α ::
         :: HOMO-LUMO gap               4.864829629738 eV   ::
         ::.................................................::
         :: SCC energy                -12.570162937204 Eh   ::
         :: -> isotropic ES             0.061426205897 Eh   ::
         :: -> anisotropic ES           0.011629591434 Eh   ::
         :: -> anisotropic XC           0.005008926073 Eh   ::
         :: -> dispersion              -0.005091276504 Eh   ::
         :: repulsion energy            0.162704079166 Eh   ::
         :: add. restraining           -0.102276921474 Eh   ::
         :::::::::::::::::::::::::::::::::::::::::::::::::::::

  # of points on xtbopt.log:           40
  doing short optimizations without Vbias ... 
   10  unconstrained dE :      0.005584
   20  unconstrained dE :      0.006663
   30  unconstrained dE :      0.007732
   40  unconstrained dE :      0.008294
 final path written to xtbpath_1.xyz
 
 optimizing inital path with Vbias ...
actual k push/pull :   0.015  -0.030

          ...................................................
          :                      SETUP                      :
          :.................................................:
          :   optimization level         verytight          :
          :   max. optcycles                   240          :
          :   ANC micro-cycles                  20          :
          :   degrees of freedom                30          :
          :.................................................:
          :   RF solver                   davidson          :
          :   input Hessian                  false          :
          :   write xtbopt.log                true          :
          :   linear?                        false          :
          :   energy convergence         0.1000000E-06 Eh   :
          :   grad. convergence          0.2000000E-03 Eh/α :
          :   maximium RF displ.         1.0000000          :
          :   Hlow (freq-cutoff)         0.1000000E-01      :
          :   Hmax (freq-cutoff)         5.0000000          :
          :   S6 in model hess.         20.0000000          :
          ...................................................

generating ANC from model Hessian ...
Using Lindh-Hessian (1995)
 Shifting diagonal of input Hessian by   1.094063199053012E-002
 Lowest  eigenvalues of input Hessian
    0.010000   -0.000000   -0.000000   -0.000000    0.000000    0.000000
    0.000000    0.011213    0.011318    0.011499    0.011668    0.011797
    0.028410    0.028859    0.034903    0.035760    0.065654    0.066161
 Highest eigenvalues
    0.946618    0.957434    1.553590    1.563773    1.820237    1.841237
 

........................................................................
.............................. CYCLE    1 ..............................
........................................................................
   1    -12.6034407 -0.126034E+02  0.107E+01    5.60       0.0  T
   2    -12.6051497 -0.170893E-02  0.657E+00    5.55       1.0  T
   3    -12.6048204  0.329240E-03  0.296E-01    5.83       1.0  T
   4    -12.6054472 -0.626797E-03  0.114E-01    5.70       1.0  T
   5    -12.6055151 -0.679064E-04  0.393E-02    5.75       1.0  T
   6    -12.6055162 -0.103509E-05  0.862E-03    5.75       3.3  T
   7    -12.6055162 -0.436489E-07  0.337E-03    5.75       8.6  T
   8    -12.6055163 -0.725704E-07  0.724E-04    5.75      39.9  T
   9    -12.6055163 -0.213300E-08  0.197E-04    5.75     146.4  T
  10    -12.6055163 -0.852296E-11  0.210E-05    5.75    1374.9  T
  11    -12.6055163 -0.101252E-12  0.717E-06    5.75    4023.6  T
     SCC iter.                  ...        0 min,  0.004 sec
     gradient                   ...        0 min,  0.004 sec
 * total energy  :   -12.2773506 Eh     change        0.2323773E+00 Eh
   gradient norm :     0.0149201 Eh/α   predicted     0.0000000E+00 (-100.00%)
   displ. norm   :     0.5406531 α      lambda       -0.5311162E-02
   maximum displ.:     0.4090757 α      in ANC's #6, #3, #5, ...

........................................................................
.............................. CYCLE    2 ..............................
........................................................................
   1    -12.6044063 -0.126044E+02  0.447E-01    5.74       0.0  T
   2    -12.6044309 -0.246754E-04  0.255E-01    5.72       1.0  T
   3    -12.6044284  0.253113E-05  0.360E-02    5.72       1.0  T
   4    -12.6044412 -0.128272E-04  0.751E-03    5.71       3.8  T
   5    -12.6044413 -0.198588E-07  0.246E-03    5.71      11.8  T
   6    -12.6044413 -0.159248E-08  0.422E-04    5.71      68.4  T
   7    -12.6044413 -0.605775E-09  0.233E-04    5.71     124.1  T
   8    -12.6044413 -0.153344E-09  0.433E-05    5.71     667.0  T
   9    -12.6044413 -0.124345E-11  0.138E-05    5.71    2093.8  T
     SCC iter.                  ...        0 min,  0.003 sec
     gradient                   ...        0 min,  0.004 sec
 * total energy  :   -12.2841198 Eh     change       -0.6769148E-02 Eh
   gradient norm :     0.0171302 Eh/α   predicted    -0.3431846E-02 ( -49.30%)
   displ. norm   :     0.6754641 α      lambda       -0.1020016E-01
   maximum displ.:     0.5061605 α      in ANC's #6, #3, #5, ...

........................................................................
.............................. CYCLE    3 ..............................
........................................................................
   1    -12.5959807 -0.125960E+02  0.539E-01    5.68       0.0  T
   2    -12.5960278 -0.470325E-04  0.306E-01    5.64       1.0  T
   3    -12.5960184  0.938093E-05  0.521E-02    5.63       1.0  T
   4    -12.5960460 -0.275721E-04  0.100E-02    5.63       2.9  T
[...]
........................................................................
   1    -12.6000671 -0.126001E+02  0.211E-01    5.72       0.0  T
   2    -12.6000738 -0.669495E-05  0.121E-01    5.72       1.0  T
   3    -12.6000757 -0.194170E-05  0.116E-02    5.72       2.5  T
   4    -12.6000763 -0.584036E-06  0.661E-03    5.72       4.4  T
   5    -12.6000764 -0.112634E-06  0.140E-03    5.72      20.6  T
   6    -12.6000764 -0.355327E-08  0.378E-04    5.72      76.3  T
   7    -12.6000764 -0.474145E-10  0.124E-04    5.72     233.7  T
   8    -12.6000764 -0.110917E-09  0.348E-05    5.72     830.1  T
     SCC iter.                  ...        0 min,  0.003 sec
     gradient                   ...        0 min,  0.003 sec
 * total energy  :   -12.9506934 Eh     change       -0.6501553E-03 Eh
   gradient norm :     0.0068913 Eh/α   predicted    -0.8773710E-03 (  34.95%)
   displ. norm   :     0.1417338 α      lambda       -0.5010576E-03
   maximum displ.:     0.0885794 α      in ANC's #3, #2, #6, ...

........................................................................
.............................. CYCLE   45 ..............................
........................................................................
   1    -12.5997518 -0.125998E+02  0.155E-01    5.72       0.0  T
   2    -12.5997557 -0.386821E-05  0.887E-02    5.72       1.0  T
   3    -12.5997542  0.149179E-05  0.168E-02    5.72       1.7  T
   4    -12.5997572 -0.302908E-05  0.334E-03    5.72       8.6  T
   5    -12.5997572 -0.135439E-07  0.872E-04    5.72      33.1  T
   6    -12.5997572 -0.436410E-09  0.192E-04    5.72     150.3  T
   7    -12.5997572 -0.466507E-10  0.907E-05    5.72     318.3  T
   8    -12.5997572 -0.324736E-10  0.184E-05    5.72    1570.0  T
     SCC iter.                  ...        0 min,  0.003 sec
     gradient                   ...        0 min,  0.003 sec
 * total energy  :   -12.9508135 Eh     change       -0.1201477E-03 Eh
   gradient norm :     0.0043870 Eh/α   predicted    -0.2555615E-03 ( 112.71%)
   displ. norm   :     0.0521400 α      lambda       -0.1316857E-03
   maximum displ.:     0.0281739 α      in ANC's #3, #2, #7, ...

........................................................................
.............................. CYCLE   46 ..............................
........................................................................
   1    -12.6002670 -0.126003E+02  0.643E-02    5.72       0.0  T
   2    -12.6002677 -0.614006E-06  0.365E-02    5.72       1.0  T
   3    -12.6002675  0.161464E-06  0.633E-03    5.72       4.6  T
   4    -12.6002679 -0.407078E-06  0.117E-03    5.72      24.7  T
   5    -12.6002679 -0.506899E-09  0.373E-04    5.72      77.4  T
   6    -12.6002679 -0.135250E-09  0.117E-04    5.72     247.6  T
   7    -12.6002679 -0.786553E-10  0.435E-05    5.72     663.3  T
     SCC iter.                  ...        0 min,  0.003 sec
     gradient                   ...        0 min,  0.003 sec
 * total energy  :   -12.9508686 Eh     change       -0.5507343E-04 Eh
   gradient norm :     0.0013954 Eh/α   predicted    -0.6602096E-04 (  19.88%)
   displ. norm   :     0.0447490 α      lambda       -0.2387795E-04
   maximum displ.:     0.0264657 α      in ANC's #6, #7, #9, ...

........................................................................
.............................. CYCLE   47 ..............................
........................................................................
   1    -12.6003629 -0.126004E+02  0.467E-02    5.72       0.0  T
   2    -12.6003631 -0.234892E-06  0.267E-02    5.72       1.1  T
   3    -12.6003631 -0.464385E-07  0.245E-03    5.72      11.8  T
   4    -12.6003632 -0.546682E-07  0.862E-04    5.72      33.5  T
   5    -12.6003632 -0.525729E-09  0.264E-04    5.72     109.4  T
   6    -12.6003632 -0.973355E-10  0.532E-05    5.72     542.3  T
   7    -12.6003632 -0.157954E-10  0.260E-05    5.72    1108.4  T
   8    -12.6003632 -0.726530E-12  0.325E-06    5.72    8880.1  T
     SCC iter.                  ...        0 min,  0.003 sec
     gradient                   ...        0 min,  0.004 sec
 * total energy  :   -12.9508506 Eh     change        0.1799884E-04 Eh
   gradient norm :     0.0021358 Eh/α   predicted    -0.1194922E-04 (-166.39%)
   displ. norm   :     0.0225550 α      lambda       -0.3483593E-04
   maximum displ.:     0.0139358 α      in ANC's #6, #9, #3, ...

........................................................................
.............................. CYCLE   48 ..............................
........................................................................
   1    -12.6002719 -0.126003E+02  0.242E-02    5.72       0.0  T
   2    -12.6002719 -0.512062E-07  0.139E-02    5.72       2.1  T
   3    -12.6002719 -0.837259E-08  0.122E-03    5.72      23.6  T
   4    -12.6002720 -0.143618E-07  0.462E-04    5.72      62.5  T
   5    -12.6002720 -0.166400E-09  0.812E-05    5.72     355.6  T
   6    -12.6002720 -0.103579E-10  0.223E-05    5.72    1295.6  T
   7    -12.6002720  0.444089E-13  0.911E-06    5.72    3169.1  T
     SCC iter.                  ...        0 min,  0.002 sec
     gradient                   ...        0 min,  0.004 sec
 * total energy  :   -12.9508726 Eh     change       -0.2204301E-04 Eh
   gradient norm :     0.0006910 Eh/α   predicted    -0.1742653E-04 ( -20.94%)
   displ. norm   :     0.0240837 α      lambda       -0.8416670E-05
   maximum displ.:     0.0198547 α      in ANC's #7, #6, #8, ...

........................................................................
.............................. CYCLE   49 ..............................
........................................................................
   1    -12.6002027 -0.126002E+02  0.247E-02    5.72       0.0  T
   2    -12.6002028 -0.111517E-06  0.140E-02    5.72       2.1  T
   3    -12.6002029 -0.273660E-07  0.159E-03    5.72      18.1  T
   4    -12.6002029 -0.226152E-07  0.602E-04    5.72      48.0  T
   5    -12.6002029 -0.137684E-09  0.906E-05    5.72     318.6  T
   6    -12.6002029 -0.277076E-10  0.175E-05    5.72    1650.0  T
   7    -12.6002029 -0.103739E-11  0.906E-06    5.72    3186.9  T
     SCC iter.                  ...        0 min,  0.002 sec
     gradient                   ...        0 min,  0.004 sec
 * total energy  :   -12.9508712 Eh     change        0.1398284E-05 Eh
   gradient norm :     0.0007534 Eh/α   predicted    -0.4208156E-05 (-400.95%)
   displ. norm   :     0.0153651 α      lambda       -0.6434655E-05
   maximum displ.:     0.0127195 α      in ANC's #7, #2, #6, ...

........................................................................
.............................. CYCLE   50 ..............................
........................................................................
   1    -12.6002506 -0.126003E+02  0.156E-02    5.72       0.0  T
   2    -12.6002506 -0.462356E-07  0.882E-03    5.72       3.3  T
   3    -12.6002506 -0.947028E-08  0.111E-03    5.72      25.9  T
   4    -12.6002506 -0.109617E-07  0.413E-04    5.72      69.9  T
   5    -12.6002506 -0.639844E-10  0.668E-05    5.72     431.9  T
   6    -12.6002506 -0.121947E-10  0.124E-05    5.72    2330.2  T
   7    -12.6002506 -0.849099E-12  0.591E-06    5.72    4881.1  T
     SCC iter.                  ...        0 min,  0.002 sec
     gradient                   ...        0 min,  0.004 sec
 * total energy  :   -12.9508754 Eh     change       -0.4203202E-05 Eh
   gradient norm :     0.0002540 Eh/α   predicted    -0.3218955E-05 ( -23.42%)
   displ. norm   :     0.0087239 α      lambda       -0.9139044E-06
   maximum displ.:     0.0065834 α      in ANC's #2, #9, #5, ...

........................................................................
.............................. CYCLE   51 ..............................
........................................................................
   1    -12.6002506 -0.126003E+02  0.895E-03    5.72       0.0  T
   2    -12.6002506 -0.716372E-08  0.510E-03    5.72       5.7  T
   3    -12.6002506 -0.309774E-08  0.217E-04    5.72     133.0  T
   4    -12.6002506 -0.180403E-09  0.120E-04    5.72     240.2  T
   5    -12.6002506 -0.202149E-10  0.191E-05    5.72    1509.8  T
   6    -12.6002506 -0.529354E-12  0.548E-06    5.72    5271.7  T
     SCC iter.                  ...        0 min,  0.002 sec
     gradient                   ...        0 min,  0.004 sec
 * total energy  :   -12.9508751 Eh     change        0.2905692E-06 Eh
   gradient norm :     0.0002813 Eh/α   predicted    -0.4574438E-06 (-257.43%)
   displ. norm   :     0.0073579 α      lambda       -0.9304895E-06
   maximum displ.:     0.0054955 α      in ANC's #2, #6, #7, ...

........................................................................
.............................. CYCLE   52 ..............................
........................................................................
   1    -12.6002480 -0.126002E+02  0.611E-03    5.72       0.0  T
   2    -12.6002480 -0.554303E-08  0.344E-03    5.72       8.4  T
   3    -12.6002480 -0.255973E-08  0.136E-04    5.72     211.7  T
   4    -12.6002480  0.108109E-10  0.423E-05    5.72     681.8  T
   5    -12.6002480 -0.144311E-10  0.616E-06    5.72    4686.5  T
     SCC iter.                  ...        0 min,  0.002 sec
     gradient                   ...        0 min,  0.004 sec
 * total energy  :   -12.9508757 Eh     change       -0.5375412E-06 Eh
   gradient norm :     0.0001089 Eh/α   predicted    -0.4664091E-06 ( -13.23%)
   displ. norm   :     0.0038464 α      lambda       -0.2322924E-06
   maximum displ.:     0.0025523 α      in ANC's #6, #1, #9, ...

........................................................................
.............................. CYCLE   53 ..............................
........................................................................
   1    -12.6002469 -0.126002E+02  0.404E-03    5.72       0.0  T
   2    -12.6002469 -0.116791E-08  0.230E-03    5.72      12.5  T
   3    -12.6002469 -0.490225E-09  0.104E-04    5.72     277.7  T
   4    -12.6002469 -0.398490E-10  0.562E-05    5.72     513.8  T
   5    -12.6002469 -0.361133E-11  0.123E-05    5.72    2337.5  T
   6    -12.6002469 -0.298428E-12  0.306E-06    5.72    9422.8  T
     SCC iter.                  ...        0 min,  0.002 sec
     gradient                   ...        0 min,  0.004 sec
 * total energy  :   -12.9508757 Eh     change       -0.7928479E-08 Eh
   gradient norm :     0.0001309 Eh/α   predicted    -0.1152313E-06 (1353.38%)
   displ. norm   :     0.0019903 α      lambda       -0.1247072E-06
   maximum displ.:     0.0009287 α      in ANC's #3, #6, #1, ...

   *** GEOMETRY OPTIMIZATION CONVERGED AFTER 53 ITERATIONS ***

------------------------------------------------------------------------
 total energy gain :          -0.1739516 Eh     -109.1563 kcal/mol
 total RMSD        :           3.0157377 α         1.5959 Å
------------------------------------------------------------------------

 ANCopt (total)                0 d,  0 h,  0 min,  0.705 sec
 optimizer setup                ...        0 min,  0.001 sec (  0.117%)
 model hessian                  ...        0 min,  0.009 sec (  1.217%)
 ANC generation                 ...        0 min,  0.002 sec (  0.237%)
 coordinate transformation      ...        0 min,  0.000 sec (  0.063%)
 single point calculation       ...        0 min,  0.523 sec ( 74.163%)
 optimization log               ...        0 min,  0.049 sec (  6.947%)
 hessian update                 ...        0 min,  0.000 sec (  0.068%)
 rational function              ...        0 min,  0.006 sec (  0.845%)

================
 final structure:
================
$coord
    4.52588779061906    1.74388156023802    1.05523240552031      N 
    3.85928536863549   -0.27653493097781    2.56447719934530      B 
   -0.32574716969570   -2.72247134098891   -2.41064788731400      N 
    0.40746123589997   -4.50588776666218   -0.65053629048659      B 
    0.87160923657246   -1.91258913842532   -3.65217888380532      H 
    5.42257717168824   -1.70032803332985    3.20948010057864      H 
    2.48063839993746   -5.25691331003005   -0.60981660319108      H 
    3.27765618289075    3.05114148313710    0.45915674798513      H 
    6.29676008871804    2.08612186139306    0.43606339319102      H 
   -2.10255982363743   -2.04107769762364   -2.55607355069987      H 
    1.75127842961617   -0.50694361366368    3.16849792542769      H 
   -1.07756083599504   -5.29864465137509    0.78345598974770      H 
$end
 
 Bond Distances (Angstroems)
 ---------------------------
N1-B2=1.3804         N1-H8=1.0072         N1-H9=1.0091         B2-N1=1.3804         B2-H6=1.1698         B2-H11=1.1668        
N3-B4=1.3816         N3-H5=1.0084         N3-H10=1.0100        B4-N3=1.3816         B4-H7=1.1670         B4-H12=1.1702        
H5-N3=1.0084         H6-B2=1.1698         H7-B4=1.1670         H8-N1=1.0072         H9-N1=1.0091         H10-N3=1.0100        
H11-B2=1.1668        H12-B4=1.1702        
 B  H  Rav=1.1685 sigma=0.0016  Rmin=1.1668  Rmax=1.1702     4
 N  H  Rav=1.0086 sigma=0.0010  Rmin=1.0072  Rmax=1.0100     4
 N  B  Rav=1.3810 sigma=0.0006  Rmin=1.3804  Rmax=1.3816     2
 
 selected bond angles (degree)
 --------------------
H8-N1-B2=123.07                H9-N1-B2=124.35                H9-N1-H8=112.59                H6-B2-N1=119.14                
H11-B2-N1=118.93               H11-B2-H6=121.93               H5-N3-B4=123.58                H10-N3-B4=123.83               
H10-N3-H5=112.56               H7-B4-N3=120.60                H12-B4-N3=119.57               H12-B4-H7=119.82               
 
 selected dihedral angles (degree)
 ---------------------------------
H6-B2-N1-H8=181.02            H6-B2-N1-H9=  0.66            H11-B2-N1-H8=  0.69           H11-B2-N1-H9=180.33           
H7-B4-N3-H5=356.21            H7-B4-N3-H10=178.46           H12-B4-N3-H5=177.48           H12-B4-N3-H10=359.73          
 
 CMA Distance (Angstroems)
 ---------------------------
R(CMA):  3.5140

========================================================================
 FINAL SINGLEPOINT CALCULATION ON OPTIMIZED GEOMETRY
========================================================================

          ...................................................
          :                      SETUP                      :
          :.................................................:
          :  # basis functions                  24          :
          :  # atomic orbitals                  24          :
          :  # shells                           16          :
          :  # electrons                        24          :
          :  max. iterations                    50          :
          :  Hamiltonian                  GFN2-xTB          :
          :  restarted?                      false          :
          :  GBSA solvation                  false          :
          :  PC potential                    false          :
          :  electronic temp.          300.0000000     K    :
          :  accuracy                    1.0000000          :
          :  -> integral cutoff          0.2500000E+02      :
          :  -> integral neglect         0.1000000E-07      :
          :  -> SCF convergence          0.1000000E-05 Eh   :
          :  -> wf. convergence          0.1000000E-03 e    :
          :  Broyden damping             0.4000000          :
          ...................................................

 iter      E             dE          RMSdq      gap      omega  full diag
   1    -12.6002469 -0.126002E+02  0.108E-06    5.72       0.0  T
   2    -12.6002469 -0.142109E-13  0.572E-07    5.72   50427.4  T
   3    -12.6002469  0.124345E-13  0.178E-07    5.72  100000.0  T

   *** convergence criteria satisfied after 3 iterations ***

         #    Occupation            Energy/Eh            Energy/eV
      -------------------------------------------------------------
         1        2.0000           -0.5967906             -16.2395
       ...           ...                  ...                  ...
         6        2.0000           -0.5029587             -13.6862
         7        2.0000           -0.4374772             -11.9044
         8        2.0000           -0.4331737             -11.7873
         9        2.0000           -0.4142369             -11.2720
        10        2.0000           -0.4101135             -11.1598
        11        2.0000           -0.3960003             -10.7757
        12        2.0000           -0.3923002             -10.6750 (HOMO)
        13                         -0.1819721              -4.9517 (LUMO)
        14                         -0.1604740              -4.3667
        15                          0.0570029               1.5511
        16                          0.0626262               1.7041
        17                          0.1863822               5.0717
       ...                                ...                  ...
        24                          0.4885193              13.2933
      -------------------------------------------------------------
                  HL-Gap            0.2103282 Eh            5.7233 eV
             Fermi-level           -0.2871362 Eh           -7.8134 eV

 SCC (total)                   0 d,  0 h,  0 min,  0.106 sec
 SCC setup                      ...        0 min,  0.000 sec (  0.233%)
 Dispersion                     ...        0 min,  0.000 sec (  0.085%)
 integral evaluation            ...        0 min,  0.002 sec (  1.984%)
 zeroth order Hamiltonian       ...        0 min,  0.000 sec (  0.035%)
 iterations                     ...        0 min,  0.001 sec (  1.273%)
 molecular gradient             ...        0 min,  0.003 sec (  3.184%)
 printout                       ...        0 min,  0.099 sec ( 93.177%)

         :::::::::::::::::::::::::::::::::::::::::::::::::::::
         ::                     SUMMARY                     ::
         :::::::::::::::::::::::::::::::::::::::::::::::::::::
         :: total energy              -12.950875688826 Eh   ::
         :: gradient norm               0.000130942782 Eh/α ::
         :: HOMO-LUMO gap               5.723320927848 eV   ::
         ::.................................................::
         :: SCC energy                -12.600246884800 Eh   ::
         :: -> isotropic ES             0.060134198962 Eh   ::
         :: -> anisotropic ES           0.012613462536 Eh   ::
         :: -> anisotropic XC           0.004965796969 Eh   ::
         :: -> dispersion              -0.004661396266 Eh   ::
         :: repulsion energy            0.171275780899 Eh   ::
         :: add. restraining           -0.521917399871 Eh   ::
         :::::::::::::::::::::::::::::::::::::::::::::::::::::

  # of points on xtbopt.log:           53
  doing short optimizations without Vbias ... 
   10  unconstrained dE :      0.011765
   20  unconstrained dE :      0.032950
   30  unconstrained dE :      0.004798
   40  unconstrained dE :      0.003241
   50  unconstrained dE :      0.003281
 final path written to xtbpath_3.xyz
 
 energies in kcal/mol, RMSD in Bohr
run 1  barrier:   7.75  dE:   5.20  ed-prod RMSD:  2.40  ed-startpath RMSD:  0.01  prod-endpath RMSD:  1.82
run 2  barrier:  39.68  dE:   2.04  ed-prod RMSD:  3.02  ed-startpath RMSD:  0.01  prod-endpath RMSD:  0.07
run 3  barrier:  36.86  dE:   2.06  ed-prod RMSD:  3.02  ed-startpath RMSD:  0.01  prod-endpath RMSD:  0.07
 check potential xtbpath.dat (cummu. dRMSD in Bohr vs. E in kcal)

------------------------------------------------------------------------
 * finished run on 2020/07/03 at 17:36:43.747     
------------------------------------------------------------------------
 total:
 * wall-time:     0 d,  0 h,  0 min, 22.941 sec
 *  cpu-time:     0 d,  0 h,  0 min,  5.492 sec
 * ratio c/w:     0.239 speedup
 SCF:
 * wall-time:     0 d,  0 h,  0 min,  0.237 sec
 *  cpu-time:     0 d,  0 h,  0 min,  0.012 sec
 * ratio c/w:     0.051 speedup

